
Host: sgoodlett-Inspiron-3585

Timers On : Fri Dec  9 18:53:44 2022
Timers Off: Fri Dec  9 18:53:44 2022

Wall Time:        0.39 seconds

                                                       Time (seconds)
Module                                       User      System        Wall        Calls

--------------------------------------------------------------------------------------

**************************************************************************************

Host: sgoodlett-Inspiron-3585

Timers On : Fri Dec  9 18:54:10 2022
Timers Off: Fri Dec  9 18:54:11 2022

Wall Time:        0.38 seconds

                                                       Time (seconds)
Module                                       User      System        Wall        Calls

--------------------------------------------------------------------------------------

**************************************************************************************

Host: sgoodlett-Inspiron-3585

Timers On : Fri Dec  9 18:55:35 2022
Timers Off: Fri Dec  9 18:55:37 2022

Wall Time:        1.36 seconds

                                                       Time (seconds)
Module                                       User      System        Wall        Calls

--------------------------------------------------------------------------------------

**************************************************************************************

Host: sgoodlett-Inspiron-3585

Timers On : Fri Dec  9 22:00:01 2022
Timers Off: Fri Dec  9 22:00:01 2022

Wall Time:        0.33 seconds

                                                       Time (seconds)
Module                                       User      System        Wall        Calls

--------------------------------------------------------------------------------------

**************************************************************************************

Host: sgoodlett-Inspiron-3585

Timers On : Fri Dec  9 22:00:24 2022
Timers Off: Fri Dec  9 22:00:29 2022

Wall Time:        4.59 seconds

                                                       Time (seconds)
Module                                       User      System        Wall        Calls

--------------------------------------------------------------------------------------

**************************************************************************************

Host: sgoodlett-Inspiron-3585

Timers On : Fri Dec  9 22:00:49 2022
Timers Off: Fri Dec  9 22:00:51 2022

Wall Time:        2.14 seconds

                                                       Time (seconds)
Module                                       User      System        Wall        Calls

--------------------------------------------------------------------------------------

**************************************************************************************

Host: sgoodlett-Inspiron-3585

Timers On : Fri Dec  9 22:02:08 2022
Timers Off: Fri Dec  9 22:02:11 2022

Wall Time:        2.33 seconds

                                                       Time (seconds)
Module                                       User      System        Wall        Calls

--------------------------------------------------------------------------------------

**************************************************************************************

Host: sgoodlett-Inspiron-3585

Timers On : Fri Dec  9 22:02:42 2022
Timers Off: Fri Dec  9 22:02:44 2022

Wall Time:        2.20 seconds

                                                       Time (seconds)
Module                                       User      System        Wall        Calls

--------------------------------------------------------------------------------------

**************************************************************************************

Host: sgoodlett-Inspiron-3585

Timers On : Fri Dec  9 22:05:20 2022
Timers Off: Fri Dec  9 22:05:22 2022

Wall Time:        2.13 seconds

                                                       Time (seconds)
Module                                       User      System        Wall        Calls

--------------------------------------------------------------------------------------

**************************************************************************************

Host: sgoodlett-Inspiron-3585

Timers On : Fri Dec  9 22:14:05 2022
Timers Off: Fri Dec  9 22:14:07 2022

Wall Time:        2.23 seconds

                                                       Time (seconds)
Module                                       User      System        Wall        Calls

--------------------------------------------------------------------------------------

**************************************************************************************

Host: sgoodlett-Inspiron-3585

Timers On : Fri Dec  9 22:14:36 2022
Timers Off: Fri Dec  9 22:14:38 2022

Wall Time:        2.40 seconds

                                                       Time (seconds)
Module                                       User      System        Wall        Calls

--------------------------------------------------------------------------------------

**************************************************************************************

Host: sgoodlett-Inspiron-3585

Timers On : Fri Dec  9 22:14:54 2022
Timers Off: Fri Dec  9 22:14:57 2022

Wall Time:        2.58 seconds

                                                       Time (seconds)
Module                                       User      System        Wall        Calls

--------------------------------------------------------------------------------------

**************************************************************************************

Host: sgoodlett-Inspiron-3585

Timers On : Fri Dec  9 22:15:38 2022
Timers Off: Fri Dec  9 22:15:40 2022

Wall Time:        2.31 seconds

                                                       Time (seconds)
Module                                       User      System        Wall        Calls

--------------------------------------------------------------------------------------

**************************************************************************************

Host: sgoodlett-Inspiron-3585

Timers On : Fri Dec  9 22:15:55 2022
Timers Off: Fri Dec  9 22:15:58 2022

Wall Time:        3.00 seconds

                                                       Time (seconds)
Module                                       User      System        Wall        Calls

--------------------------------------------------------------------------------------

**************************************************************************************

Host: sgoodlett-Inspiron-3585

Timers On : Fri Dec  9 22:18:41 2022
Timers Off: Fri Dec  9 22:18:44 2022

Wall Time:        2.75 seconds

                                                       Time (seconds)
Module                                       User      System        Wall        Calls

--------------------------------------------------------------------------------------

**************************************************************************************

Host: sgoodlett-Inspiron-3585

Timers On : Fri Dec  9 22:19:07 2022
Timers Off: Fri Dec  9 22:19:10 2022

Wall Time:        2.57 seconds

                                                       Time (seconds)
Module                                       User      System        Wall        Calls

--------------------------------------------------------------------------------------

**************************************************************************************

Host: sgoodlett-Inspiron-3585

Timers On : Fri Dec  9 22:19:37 2022
Timers Off: Fri Dec  9 22:19:39 2022

Wall Time:        2.61 seconds

                                                       Time (seconds)
Module                                       User      System        Wall        Calls

--------------------------------------------------------------------------------------

**************************************************************************************
