
Host: smg13363-ws

Timers On : Wed Jan  4 10:44:30 2023
Timers Off: Wed Jan  4 10:44:31 2023

Wall Time:        0.27 seconds

                                                       Time (seconds)
Module                                       User      System        Wall        Calls

--------------------------------------------------------------------------------------

**************************************************************************************

Host: smg13363-ws

Timers On : Wed Jan  4 10:49:23 2023
Timers Off: Wed Jan  4 10:49:24 2023

Wall Time:        0.29 seconds

                                                       Time (seconds)
Module                                       User      System        Wall        Calls

--------------------------------------------------------------------------------------

**************************************************************************************

Host: smg13363-ws

Timers On : Wed Jan  4 10:49:51 2023
Timers Off: Wed Jan  4 10:49:51 2023

Wall Time:        0.24 seconds

                                                       Time (seconds)
Module                                       User      System        Wall        Calls

--------------------------------------------------------------------------------------

**************************************************************************************

Host: smg13363-ws

Timers On : Wed Jan  4 10:51:45 2023
Timers Off: Wed Jan  4 10:51:46 2023

Wall Time:        0.23 seconds

                                                       Time (seconds)
Module                                       User      System        Wall        Calls

--------------------------------------------------------------------------------------

**************************************************************************************

Host: smg13363-ws

Timers On : Wed Jan  4 10:55:15 2023
Timers Off: Wed Jan  4 10:55:15 2023

Wall Time:        0.23 seconds

                                                       Time (seconds)
Module                                       User      System        Wall        Calls

--------------------------------------------------------------------------------------

**************************************************************************************

Host: smg13363-ws

Timers On : Wed Jan  4 11:00:52 2023
Timers Off: Wed Jan  4 11:00:52 2023

Wall Time:        0.24 seconds

                                                       Time (seconds)
Module                                       User      System        Wall        Calls

--------------------------------------------------------------------------------------

**************************************************************************************

Host: smg13363-ws

Timers On : Wed Jan  4 11:01:24 2023
Timers Off: Wed Jan  4 11:01:25 2023

Wall Time:        0.23 seconds

                                                       Time (seconds)
Module                                       User      System        Wall        Calls

--------------------------------------------------------------------------------------

**************************************************************************************

Host: smg13363-ws

Timers On : Wed Jan  4 11:03:13 2023
Timers Off: Wed Jan  4 11:03:13 2023

Wall Time:        0.23 seconds

                                                       Time (seconds)
Module                                       User      System        Wall        Calls

--------------------------------------------------------------------------------------

**************************************************************************************

Host: smg13363-ws

Timers On : Wed Jan  4 11:07:54 2023
Timers Off: Wed Jan  4 11:07:55 2023

Wall Time:        0.23 seconds

                                                       Time (seconds)
Module                                       User      System        Wall        Calls

--------------------------------------------------------------------------------------

**************************************************************************************

Host: smg13363-ws

Timers On : Wed Jan  4 11:09:07 2023
Timers Off: Wed Jan  4 11:09:07 2023

Wall Time:        0.23 seconds

                                                       Time (seconds)
Module                                       User      System        Wall        Calls

--------------------------------------------------------------------------------------

**************************************************************************************

Host: smg13363-ws

Timers On : Wed Jan  4 11:09:27 2023
Timers Off: Wed Jan  4 11:09:27 2023

Wall Time:        0.23 seconds

                                                       Time (seconds)
Module                                       User      System        Wall        Calls

--------------------------------------------------------------------------------------

**************************************************************************************

Host: smg13363-ws

Timers On : Wed Jan  4 11:09:50 2023
Timers Off: Wed Jan  4 11:09:50 2023

Wall Time:        0.23 seconds

                                                       Time (seconds)
Module                                       User      System        Wall        Calls

--------------------------------------------------------------------------------------

**************************************************************************************

Host: smg13363-ws

Timers On : Wed Jan  4 11:10:09 2023
Timers Off: Wed Jan  4 11:10:09 2023

Wall Time:        0.23 seconds

                                                       Time (seconds)
Module                                       User      System        Wall        Calls

--------------------------------------------------------------------------------------

**************************************************************************************

Host: smg13363-ws

Timers On : Wed Jan  4 11:10:24 2023
Timers Off: Wed Jan  4 11:10:25 2023

Wall Time:        0.23 seconds

                                                       Time (seconds)
Module                                       User      System        Wall        Calls

--------------------------------------------------------------------------------------

**************************************************************************************

Host: smg13363-ws

Timers On : Wed Jan  4 11:11:29 2023
Timers Off: Wed Jan  4 11:11:29 2023

Wall Time:        0.29 seconds

                                                       Time (seconds)
Module                                       User      System        Wall        Calls

--------------------------------------------------------------------------------------

**************************************************************************************

Host: smg13363-ws

Timers On : Wed Jan  4 11:11:39 2023
Timers Off: Wed Jan  4 11:11:40 2023

Wall Time:        0.24 seconds

                                                       Time (seconds)
Module                                       User      System        Wall        Calls

--------------------------------------------------------------------------------------

**************************************************************************************

Host: smg13363-ws

Timers On : Wed Jan  4 11:12:06 2023
Timers Off: Wed Jan  4 11:12:07 2023

Wall Time:        0.23 seconds

                                                       Time (seconds)
Module                                       User      System        Wall        Calls

--------------------------------------------------------------------------------------

**************************************************************************************

Host: smg13363-ws

Timers On : Wed Jan  4 11:21:53 2023
Timers Off: Wed Jan  4 11:21:53 2023

Wall Time:        0.23 seconds

                                                       Time (seconds)
Module                                       User      System        Wall        Calls

--------------------------------------------------------------------------------------

**************************************************************************************

Host: smg13363-ws

Timers On : Wed Jan  4 11:23:28 2023
Timers Off: Wed Jan  4 11:23:28 2023

Wall Time:        0.23 seconds

                                                       Time (seconds)
Module                                       User      System        Wall        Calls

--------------------------------------------------------------------------------------

**************************************************************************************

Host: smg13363-ws

Timers On : Wed Jan  4 11:25:10 2023
Timers Off: Wed Jan  4 11:25:10 2023

Wall Time:        0.23 seconds

                                                       Time (seconds)
Module                                       User      System        Wall        Calls

--------------------------------------------------------------------------------------

**************************************************************************************

Host: smg13363-ws

Timers On : Wed Jan  4 11:26:18 2023
Timers Off: Wed Jan  4 11:26:18 2023

Wall Time:        0.23 seconds

                                                       Time (seconds)
Module                                       User      System        Wall        Calls

--------------------------------------------------------------------------------------

**************************************************************************************

Host: smg13363-ws

Timers On : Wed Jan  4 11:28:16 2023
Timers Off: Wed Jan  4 11:28:16 2023

Wall Time:        0.23 seconds

                                                       Time (seconds)
Module                                       User      System        Wall        Calls

--------------------------------------------------------------------------------------

**************************************************************************************

Host: smg13363-ws

Timers On : Wed Jan  4 11:30:19 2023
Timers Off: Wed Jan  4 11:30:20 2023

Wall Time:        0.23 seconds

                                                       Time (seconds)
Module                                       User      System        Wall        Calls

--------------------------------------------------------------------------------------

**************************************************************************************

Host: smg13363-ws

Timers On : Wed Jan  4 11:31:02 2023
Timers Off: Wed Jan  4 11:31:02 2023

Wall Time:        0.23 seconds

                                                       Time (seconds)
Module                                       User      System        Wall        Calls

--------------------------------------------------------------------------------------

**************************************************************************************

Host: smg13363-ws

Timers On : Wed Jan  4 11:31:30 2023
Timers Off: Wed Jan  4 11:31:30 2023

Wall Time:        0.23 seconds

                                                       Time (seconds)
Module                                       User      System        Wall        Calls

--------------------------------------------------------------------------------------

**************************************************************************************

Host: smg13363-ws

Timers On : Wed Jan  4 11:32:11 2023
Timers Off: Wed Jan  4 11:32:11 2023

Wall Time:        0.23 seconds

                                                       Time (seconds)
Module                                       User      System        Wall        Calls

--------------------------------------------------------------------------------------

**************************************************************************************

Host: smg13363-ws

Timers On : Wed Jan  4 11:41:59 2023
Timers Off: Wed Jan  4 11:41:59 2023

Wall Time:        0.27 seconds

                                                       Time (seconds)
Module                                       User      System        Wall        Calls

--------------------------------------------------------------------------------------

**************************************************************************************

Host: smg13363-ws

Timers On : Wed Jan  4 11:42:28 2023
Timers Off: Wed Jan  4 11:42:28 2023

Wall Time:        0.23 seconds

                                                       Time (seconds)
Module                                       User      System        Wall        Calls

--------------------------------------------------------------------------------------

**************************************************************************************

Host: smg13363-ws

Timers On : Wed Jan  4 11:42:51 2023
Timers Off: Wed Jan  4 11:42:51 2023

Wall Time:        0.23 seconds

                                                       Time (seconds)
Module                                       User      System        Wall        Calls

--------------------------------------------------------------------------------------

**************************************************************************************

Host: smg13363-ws

Timers On : Wed Jan  4 11:46:19 2023
Timers Off: Wed Jan  4 11:46:20 2023

Wall Time:        0.23 seconds

                                                       Time (seconds)
Module                                       User      System        Wall        Calls

--------------------------------------------------------------------------------------

**************************************************************************************

Host: smg13363-ws

Timers On : Wed Jan  4 11:52:00 2023
Timers Off: Wed Jan  4 11:52:00 2023

Wall Time:        0.23 seconds

                                                       Time (seconds)
Module                                       User      System        Wall        Calls

--------------------------------------------------------------------------------------

**************************************************************************************

Host: smg13363-ws

Timers On : Wed Jan  4 11:53:39 2023
Timers Off: Wed Jan  4 11:53:39 2023

Wall Time:        0.23 seconds

                                                       Time (seconds)
Module                                       User      System        Wall        Calls

--------------------------------------------------------------------------------------

**************************************************************************************

Host: smg13363-ws

Timers On : Wed Jan  4 11:54:38 2023
Timers Off: Wed Jan  4 11:54:38 2023

Wall Time:        0.23 seconds

                                                       Time (seconds)
Module                                       User      System        Wall        Calls

--------------------------------------------------------------------------------------

**************************************************************************************

Host: smg13363-ws

Timers On : Wed Jan  4 11:55:21 2023
Timers Off: Wed Jan  4 11:55:21 2023

Wall Time:        0.23 seconds

                                                       Time (seconds)
Module                                       User      System        Wall        Calls

--------------------------------------------------------------------------------------

**************************************************************************************

Host: smg13363-ws

Timers On : Wed Jan  4 11:58:03 2023
Timers Off: Wed Jan  4 11:58:03 2023

Wall Time:        0.23 seconds

                                                       Time (seconds)
Module                                       User      System        Wall        Calls

--------------------------------------------------------------------------------------

**************************************************************************************

Host: smg13363-ws

Timers On : Wed Jan  4 12:04:09 2023
Timers Off: Wed Jan  4 12:04:09 2023

Wall Time:        0.23 seconds

                                                       Time (seconds)
Module                                       User      System        Wall        Calls

--------------------------------------------------------------------------------------

**************************************************************************************

Host: smg13363-ws

Timers On : Wed Jan  4 12:05:15 2023
Timers Off: Wed Jan  4 12:05:15 2023

Wall Time:        0.23 seconds

                                                       Time (seconds)
Module                                       User      System        Wall        Calls

--------------------------------------------------------------------------------------

**************************************************************************************

Host: smg13363-ws

Timers On : Fri Jan  6 09:36:49 2023
Timers Off: Fri Jan  6 09:36:49 2023

Wall Time:        0.26 seconds

                                                       Time (seconds)
Module                                       User      System        Wall        Calls

--------------------------------------------------------------------------------------

**************************************************************************************

Host: smg13363-ws

Timers On : Fri Jan  6 09:36:59 2023
Timers Off: Fri Jan  6 09:37:00 2023

Wall Time:        0.28 seconds

                                                       Time (seconds)
Module                                       User      System        Wall        Calls

--------------------------------------------------------------------------------------

**************************************************************************************

Host: smg13363-ws

Timers On : Fri Jan  6 09:37:46 2023
Timers Off: Fri Jan  6 09:37:46 2023

Wall Time:        0.23 seconds

                                                       Time (seconds)
Module                                       User      System        Wall        Calls

--------------------------------------------------------------------------------------

**************************************************************************************

Host: smg13363-ws

Timers On : Fri Jan  6 09:38:58 2023
Timers Off: Fri Jan  6 09:38:58 2023

Wall Time:        0.23 seconds

                                                       Time (seconds)
Module                                       User      System        Wall        Calls

--------------------------------------------------------------------------------------

**************************************************************************************

Host: smg13363-ws

Timers On : Fri Jan  6 10:27:54 2023
Timers Off: Fri Jan  6 10:27:54 2023

Wall Time:        0.24 seconds

                                                       Time (seconds)
Module                                       User      System        Wall        Calls

--------------------------------------------------------------------------------------

**************************************************************************************

Host: smg13363-ws

Timers On : Fri Jan  6 10:28:33 2023
Timers Off: Fri Jan  6 10:28:33 2023

Wall Time:        0.23 seconds

                                                       Time (seconds)
Module                                       User      System        Wall        Calls

--------------------------------------------------------------------------------------

**************************************************************************************

Host: smg13363-ws

Timers On : Fri Jan  6 10:29:46 2023
Timers Off: Fri Jan  6 10:29:46 2023

Wall Time:        0.23 seconds

                                                       Time (seconds)
Module                                       User      System        Wall        Calls

--------------------------------------------------------------------------------------

**************************************************************************************

Host: smg13363-ws

Timers On : Fri Jan  6 10:49:42 2023
Timers Off: Fri Jan  6 10:49:42 2023

Wall Time:        0.29 seconds

                                                       Time (seconds)
Module                                       User      System        Wall        Calls

--------------------------------------------------------------------------------------

**************************************************************************************

Host: smg13363-ws

Timers On : Fri Jan  6 10:49:47 2023
Timers Off: Fri Jan  6 10:49:47 2023

Wall Time:        0.28 seconds

                                                       Time (seconds)
Module                                       User      System        Wall        Calls

--------------------------------------------------------------------------------------

**************************************************************************************

Host: smg13363-ws

Timers On : Fri Jan  6 10:50:56 2023
Timers Off: Fri Jan  6 10:50:56 2023

Wall Time:        0.29 seconds

                                                       Time (seconds)
Module                                       User      System        Wall        Calls

--------------------------------------------------------------------------------------

**************************************************************************************

Host: smg13363-ws

Timers On : Fri Jan  6 10:51:36 2023
Timers Off: Fri Jan  6 10:51:37 2023

Wall Time:        0.24 seconds

                                                       Time (seconds)
Module                                       User      System        Wall        Calls

--------------------------------------------------------------------------------------

**************************************************************************************

Host: smg13363-ws

Timers On : Fri Jan  6 11:07:08 2023
Timers Off: Fri Jan  6 11:07:08 2023

Wall Time:        0.23 seconds

                                                       Time (seconds)
Module                                       User      System        Wall        Calls

--------------------------------------------------------------------------------------

**************************************************************************************

Host: smg13363-ws

Timers On : Fri Jan  6 11:07:48 2023
Timers Off: Fri Jan  6 11:07:48 2023

Wall Time:        0.23 seconds

                                                       Time (seconds)
Module                                       User      System        Wall        Calls

--------------------------------------------------------------------------------------

**************************************************************************************

Host: smg13363-ws

Timers On : Fri Jan  6 11:08:17 2023
Timers Off: Fri Jan  6 11:08:17 2023

Wall Time:        0.23 seconds

                                                       Time (seconds)
Module                                       User      System        Wall        Calls

--------------------------------------------------------------------------------------

**************************************************************************************

Host: smg13363-ws

Timers On : Fri Jan  6 11:13:21 2023
Timers Off: Fri Jan  6 11:13:21 2023

Wall Time:        0.23 seconds

                                                       Time (seconds)
Module                                       User      System        Wall        Calls

--------------------------------------------------------------------------------------

**************************************************************************************

Host: smg13363-ws

Timers On : Fri Jan  6 11:13:59 2023
Timers Off: Fri Jan  6 11:14:00 2023

Wall Time:        0.23 seconds

                                                       Time (seconds)
Module                                       User      System        Wall        Calls

--------------------------------------------------------------------------------------

**************************************************************************************

Host: smg13363-ws

Timers On : Fri Jan  6 11:15:27 2023
Timers Off: Fri Jan  6 11:15:27 2023

Wall Time:        0.24 seconds

                                                       Time (seconds)
Module                                       User      System        Wall        Calls

--------------------------------------------------------------------------------------

**************************************************************************************

Host: smg13363-ws

Timers On : Fri Jan  6 11:21:45 2023
Timers Off: Fri Jan  6 11:21:45 2023

Wall Time:        0.23 seconds

                                                       Time (seconds)
Module                                       User      System        Wall        Calls

--------------------------------------------------------------------------------------

**************************************************************************************

Host: smg13363-ws

Timers On : Fri Jan  6 11:22:02 2023
Timers Off: Fri Jan  6 11:22:02 2023

Wall Time:        0.23 seconds

                                                       Time (seconds)
Module                                       User      System        Wall        Calls

--------------------------------------------------------------------------------------

**************************************************************************************

Host: smg13363-ws

Timers On : Fri Jan  6 11:22:18 2023
Timers Off: Fri Jan  6 11:22:18 2023

Wall Time:        0.23 seconds

                                                       Time (seconds)
Module                                       User      System        Wall        Calls

--------------------------------------------------------------------------------------

**************************************************************************************

Host: smg13363-ws

Timers On : Fri Jan  6 11:22:40 2023
Timers Off: Fri Jan  6 11:22:40 2023

Wall Time:        0.23 seconds

                                                       Time (seconds)
Module                                       User      System        Wall        Calls

--------------------------------------------------------------------------------------

**************************************************************************************

Host: smg13363-ws

Timers On : Fri Jan  6 11:28:32 2023
Timers Off: Fri Jan  6 11:28:32 2023

Wall Time:        0.27 seconds

                                                       Time (seconds)
Module                                       User      System        Wall        Calls

--------------------------------------------------------------------------------------

**************************************************************************************

Host: smg13363-ws

Timers On : Fri Jan  6 11:28:49 2023
Timers Off: Fri Jan  6 11:28:49 2023

Wall Time:        0.24 seconds

                                                       Time (seconds)
Module                                       User      System        Wall        Calls

--------------------------------------------------------------------------------------

**************************************************************************************

Host: smg13363-ws

Timers On : Fri Jan  6 11:33:38 2023
Timers Off: Fri Jan  6 11:33:38 2023

Wall Time:        0.27 seconds

                                                       Time (seconds)
Module                                       User      System        Wall        Calls

--------------------------------------------------------------------------------------

**************************************************************************************

Host: smg13363-ws

Timers On : Fri Jan  6 11:34:08 2023
Timers Off: Fri Jan  6 11:34:08 2023

Wall Time:        0.27 seconds

                                                       Time (seconds)
Module                                       User      System        Wall        Calls

--------------------------------------------------------------------------------------

**************************************************************************************

Host: smg13363-ws

Timers On : Fri Jan  6 11:35:16 2023
Timers Off: Fri Jan  6 11:35:16 2023

Wall Time:        0.26 seconds

                                                       Time (seconds)
Module                                       User      System        Wall        Calls

--------------------------------------------------------------------------------------

**************************************************************************************

Host: smg13363-ws

Timers On : Fri Jan  6 11:36:16 2023
Timers Off: Fri Jan  6 11:36:16 2023

Wall Time:        0.26 seconds

                                                       Time (seconds)
Module                                       User      System        Wall        Calls

--------------------------------------------------------------------------------------

**************************************************************************************

Host: smg13363-ws

Timers On : Fri Jan  6 11:37:57 2023
Timers Off: Fri Jan  6 11:37:58 2023

Wall Time:        0.27 seconds

                                                       Time (seconds)
Module                                       User      System        Wall        Calls

--------------------------------------------------------------------------------------

**************************************************************************************

Host: smg13363-ws

Timers On : Fri Jan  6 11:38:32 2023
Timers Off: Fri Jan  6 11:38:32 2023

Wall Time:        0.28 seconds

                                                       Time (seconds)
Module                                       User      System        Wall        Calls

--------------------------------------------------------------------------------------

**************************************************************************************

Host: smg13363-ws

Timers On : Fri Jan  6 11:38:47 2023
Timers Off: Fri Jan  6 11:38:47 2023

Wall Time:        0.26 seconds

                                                       Time (seconds)
Module                                       User      System        Wall        Calls

--------------------------------------------------------------------------------------

**************************************************************************************

Host: smg13363-ws

Timers On : Fri Jan  6 11:40:13 2023
Timers Off: Fri Jan  6 11:40:13 2023

Wall Time:        0.27 seconds

                                                       Time (seconds)
Module                                       User      System        Wall        Calls

--------------------------------------------------------------------------------------

**************************************************************************************

Host: smg13363-ws

Timers On : Fri Jan  6 11:40:39 2023
Timers Off: Fri Jan  6 11:40:39 2023

Wall Time:        0.27 seconds

                                                       Time (seconds)
Module                                       User      System        Wall        Calls

--------------------------------------------------------------------------------------

**************************************************************************************

Host: smg13363-ws

Timers On : Fri Jan  6 11:40:47 2023
Timers Off: Fri Jan  6 11:40:47 2023

Wall Time:        0.27 seconds

                                                       Time (seconds)
Module                                       User      System        Wall        Calls

--------------------------------------------------------------------------------------

**************************************************************************************

Host: smg13363-ws

Timers On : Fri Jan  6 11:41:00 2023
Timers Off: Fri Jan  6 11:41:01 2023

Wall Time:        0.27 seconds

                                                       Time (seconds)
Module                                       User      System        Wall        Calls

--------------------------------------------------------------------------------------

**************************************************************************************

Host: smg13363-ws

Timers On : Fri Jan  6 11:41:30 2023
Timers Off: Fri Jan  6 11:41:31 2023

Wall Time:        0.27 seconds

                                                       Time (seconds)
Module                                       User      System        Wall        Calls

--------------------------------------------------------------------------------------

**************************************************************************************

Host: smg13363-ws

Timers On : Fri Jan  6 11:42:24 2023
Timers Off: Fri Jan  6 11:42:24 2023

Wall Time:        0.28 seconds

                                                       Time (seconds)
Module                                       User      System        Wall        Calls

--------------------------------------------------------------------------------------

**************************************************************************************

Host: smg13363-ws

Timers On : Fri Jan  6 11:44:11 2023
Timers Off: Fri Jan  6 11:44:11 2023

Wall Time:        0.28 seconds

                                                       Time (seconds)
Module                                       User      System        Wall        Calls

--------------------------------------------------------------------------------------

**************************************************************************************

Host: smg13363-ws

Timers On : Fri Jan  6 11:44:37 2023
Timers Off: Fri Jan  6 11:44:38 2023

Wall Time:        0.30 seconds

                                                       Time (seconds)
Module                                       User      System        Wall        Calls

--------------------------------------------------------------------------------------

**************************************************************************************

Host: smg13363-ws

Timers On : Fri Jan  6 11:45:05 2023
Timers Off: Fri Jan  6 11:45:05 2023

Wall Time:        0.29 seconds

                                                       Time (seconds)
Module                                       User      System        Wall        Calls

--------------------------------------------------------------------------------------

**************************************************************************************

Host: smg13363-ws

Timers On : Fri Jan  6 11:45:23 2023
Timers Off: Fri Jan  6 11:45:23 2023

Wall Time:        0.31 seconds

                                                       Time (seconds)
Module                                       User      System        Wall        Calls

--------------------------------------------------------------------------------------

**************************************************************************************

Host: smg13363-ws

Timers On : Fri Jan  6 11:46:00 2023
Timers Off: Fri Jan  6 11:46:01 2023

Wall Time:        0.31 seconds

                                                       Time (seconds)
Module                                       User      System        Wall        Calls

--------------------------------------------------------------------------------------

**************************************************************************************

Host: smg13363-ws

Timers On : Fri Jan  6 11:46:11 2023
Timers Off: Fri Jan  6 11:46:11 2023

Wall Time:        0.32 seconds

                                                       Time (seconds)
Module                                       User      System        Wall        Calls

--------------------------------------------------------------------------------------

**************************************************************************************

Host: smg13363-ws

Timers On : Fri Jan  6 11:46:52 2023
Timers Off: Fri Jan  6 11:46:53 2023

Wall Time:        0.32 seconds

                                                       Time (seconds)
Module                                       User      System        Wall        Calls

--------------------------------------------------------------------------------------

**************************************************************************************

Host: smg13363-ws

Timers On : Fri Jan  6 11:47:11 2023
Timers Off: Fri Jan  6 11:47:11 2023

Wall Time:        0.32 seconds

                                                       Time (seconds)
Module                                       User      System        Wall        Calls

--------------------------------------------------------------------------------------

**************************************************************************************

Host: smg13363-ws

Timers On : Fri Jan  6 11:47:28 2023
Timers Off: Fri Jan  6 11:47:29 2023

Wall Time:        0.31 seconds

                                                       Time (seconds)
Module                                       User      System        Wall        Calls

--------------------------------------------------------------------------------------

**************************************************************************************

Host: smg13363-ws

Timers On : Fri Jan  6 11:50:10 2023
Timers Off: Fri Jan  6 11:50:11 2023

Wall Time:        0.25 seconds

                                                       Time (seconds)
Module                                       User      System        Wall        Calls

--------------------------------------------------------------------------------------

**************************************************************************************

Host: smg13363-ws

Timers On : Fri Jan  6 11:50:22 2023
Timers Off: Fri Jan  6 11:50:23 2023

Wall Time:        0.25 seconds

                                                       Time (seconds)
Module                                       User      System        Wall        Calls

--------------------------------------------------------------------------------------

**************************************************************************************

Host: smg13363-ws

Timers On : Fri Jan  6 11:50:36 2023
Timers Off: Fri Jan  6 11:50:36 2023

Wall Time:        0.25 seconds

                                                       Time (seconds)
Module                                       User      System        Wall        Calls

--------------------------------------------------------------------------------------

**************************************************************************************

Host: smg13363-ws

Timers On : Fri Jan  6 11:51:31 2023
Timers Off: Fri Jan  6 11:51:32 2023

Wall Time:        0.25 seconds

                                                       Time (seconds)
Module                                       User      System        Wall        Calls

--------------------------------------------------------------------------------------

**************************************************************************************

Host: smg13363-ws

Timers On : Fri Jan  6 11:51:41 2023
Timers Off: Fri Jan  6 11:51:41 2023

Wall Time:        0.25 seconds

                                                       Time (seconds)
Module                                       User      System        Wall        Calls

--------------------------------------------------------------------------------------

**************************************************************************************

Host: smg13363-ws

Timers On : Fri Jan  6 11:52:11 2023
Timers Off: Fri Jan  6 11:52:12 2023

Wall Time:        0.27 seconds

                                                       Time (seconds)
Module                                       User      System        Wall        Calls

--------------------------------------------------------------------------------------

**************************************************************************************

Host: smg13363-ws

Timers On : Fri Jan  6 11:52:33 2023
Timers Off: Fri Jan  6 11:52:33 2023

Wall Time:        0.25 seconds

                                                       Time (seconds)
Module                                       User      System        Wall        Calls

--------------------------------------------------------------------------------------

**************************************************************************************

Host: smg13363-ws

Timers On : Fri Jan  6 11:55:35 2023
Timers Off: Fri Jan  6 11:55:35 2023

Wall Time:        0.25 seconds

                                                       Time (seconds)
Module                                       User      System        Wall        Calls

--------------------------------------------------------------------------------------

**************************************************************************************

Host: smg13363-ws

Timers On : Tue Jan 10 14:22:34 2023
Timers Off: Tue Jan 10 14:22:34 2023

Wall Time:        0.27 seconds

                                                       Time (seconds)
Module                                       User      System        Wall        Calls

--------------------------------------------------------------------------------------

**************************************************************************************

Host: smg13363-ws

Timers On : Tue Jan 10 15:17:57 2023
Timers Off: Tue Jan 10 15:17:58 2023

Wall Time:        0.28 seconds

                                                       Time (seconds)
Module                                       User      System        Wall        Calls

--------------------------------------------------------------------------------------

**************************************************************************************

Host: smg13363-ws

Timers On : Tue Jan 10 15:18:56 2023
Timers Off: Tue Jan 10 15:18:57 2023

Wall Time:        0.30 seconds

                                                       Time (seconds)
Module                                       User      System        Wall        Calls

--------------------------------------------------------------------------------------

**************************************************************************************

Host: smg13363-ws

Timers On : Tue Jan 10 15:19:52 2023
Timers Off: Tue Jan 10 15:19:52 2023

Wall Time:        0.29 seconds

                                                       Time (seconds)
Module                                       User      System        Wall        Calls

--------------------------------------------------------------------------------------

**************************************************************************************

Host: smg13363-ws

Timers On : Tue Jan 10 15:21:51 2023
Timers Off: Tue Jan 10 15:21:51 2023

Wall Time:        0.26 seconds

                                                       Time (seconds)
Module                                       User      System        Wall        Calls

--------------------------------------------------------------------------------------

**************************************************************************************

Host: smg13363-ws

Timers On : Tue Jan 10 15:22:02 2023
Timers Off: Tue Jan 10 15:22:03 2023

Wall Time:        0.28 seconds

                                                       Time (seconds)
Module                                       User      System        Wall        Calls

--------------------------------------------------------------------------------------

**************************************************************************************

Host: smg13363-ws

Timers On : Tue Jan 10 15:22:49 2023
Timers Off: Tue Jan 10 15:22:49 2023

Wall Time:        0.28 seconds

                                                       Time (seconds)
Module                                       User      System        Wall        Calls

--------------------------------------------------------------------------------------

**************************************************************************************

Host: smg13363-ws

Timers On : Tue Jan 10 15:26:33 2023
Timers Off: Tue Jan 10 15:26:33 2023

Wall Time:        0.28 seconds

                                                       Time (seconds)
Module                                       User      System        Wall        Calls

--------------------------------------------------------------------------------------

**************************************************************************************

Host: smg13363-ws

Timers On : Tue Jan 10 15:28:07 2023
Timers Off: Tue Jan 10 15:28:07 2023

Wall Time:        0.27 seconds

                                                       Time (seconds)
Module                                       User      System        Wall        Calls

--------------------------------------------------------------------------------------

**************************************************************************************

Host: smg13363-ws

Timers On : Tue Jan 10 15:28:50 2023
Timers Off: Tue Jan 10 15:28:50 2023

Wall Time:        0.28 seconds

                                                       Time (seconds)
Module                                       User      System        Wall        Calls

--------------------------------------------------------------------------------------

**************************************************************************************

Host: smg13363-ws

Timers On : Tue Jan 10 15:30:23 2023
Timers Off: Tue Jan 10 15:30:23 2023

Wall Time:        0.27 seconds

                                                       Time (seconds)
Module                                       User      System        Wall        Calls

--------------------------------------------------------------------------------------

**************************************************************************************

Host: smg13363-ws

Timers On : Tue Jan 10 15:30:46 2023
Timers Off: Tue Jan 10 15:30:46 2023

Wall Time:        0.27 seconds

                                                       Time (seconds)
Module                                       User      System        Wall        Calls

--------------------------------------------------------------------------------------

**************************************************************************************

Host: smg13363-ws

Timers On : Tue Jan 10 15:31:16 2023
Timers Off: Tue Jan 10 15:31:17 2023

Wall Time:        0.28 seconds

                                                       Time (seconds)
Module                                       User      System        Wall        Calls

--------------------------------------------------------------------------------------

**************************************************************************************

Host: smg13363-ws

Timers On : Tue Jan 10 15:39:32 2023
Timers Off: Tue Jan 10 15:39:32 2023

Wall Time:        0.28 seconds

                                                       Time (seconds)
Module                                       User      System        Wall        Calls

--------------------------------------------------------------------------------------

**************************************************************************************

Host: smg13363-ws

Timers On : Tue Jan 10 15:42:05 2023
Timers Off: Tue Jan 10 15:42:05 2023

Wall Time:        0.28 seconds

                                                       Time (seconds)
Module                                       User      System        Wall        Calls

--------------------------------------------------------------------------------------

**************************************************************************************

Host: smg13363-ws

Timers On : Tue Jan 10 15:48:50 2023
Timers Off: Tue Jan 10 15:48:50 2023

Wall Time:        0.26 seconds

                                                       Time (seconds)
Module                                       User      System        Wall        Calls

--------------------------------------------------------------------------------------

**************************************************************************************

Host: smg13363-ws

Timers On : Tue Jan 10 15:49:26 2023
Timers Off: Tue Jan 10 15:49:26 2023

Wall Time:        0.26 seconds

                                                       Time (seconds)
Module                                       User      System        Wall        Calls

--------------------------------------------------------------------------------------

**************************************************************************************

Host: smg13363-ws

Timers On : Tue Jan 10 15:49:39 2023
Timers Off: Tue Jan 10 15:49:40 2023

Wall Time:        0.26 seconds

                                                       Time (seconds)
Module                                       User      System        Wall        Calls

--------------------------------------------------------------------------------------

**************************************************************************************

Host: smg13363-ws

Timers On : Tue Jan 10 15:50:38 2023
Timers Off: Tue Jan 10 15:50:38 2023

Wall Time:        0.27 seconds

                                                       Time (seconds)
Module                                       User      System        Wall        Calls

--------------------------------------------------------------------------------------

**************************************************************************************

Host: smg13363-ws

Timers On : Tue Jan 10 15:54:11 2023
Timers Off: Tue Jan 10 15:54:12 2023

Wall Time:        0.26 seconds

                                                       Time (seconds)
Module                                       User      System        Wall        Calls

--------------------------------------------------------------------------------------

**************************************************************************************

Host: smg13363-ws

Timers On : Tue Jan 10 15:54:35 2023
Timers Off: Tue Jan 10 15:54:35 2023

Wall Time:        0.27 seconds

                                                       Time (seconds)
Module                                       User      System        Wall        Calls

--------------------------------------------------------------------------------------

**************************************************************************************

Host: smg13363-ws

Timers On : Tue Jan 10 15:54:55 2023
Timers Off: Tue Jan 10 15:54:55 2023

Wall Time:        0.27 seconds

                                                       Time (seconds)
Module                                       User      System        Wall        Calls

--------------------------------------------------------------------------------------

**************************************************************************************

Host: smg13363-ws

Timers On : Tue Jan 10 15:55:08 2023
Timers Off: Tue Jan 10 15:55:08 2023

Wall Time:        0.26 seconds

                                                       Time (seconds)
Module                                       User      System        Wall        Calls

--------------------------------------------------------------------------------------

**************************************************************************************

Host: smg13363-ws

Timers On : Tue Jan 10 15:55:16 2023
Timers Off: Tue Jan 10 15:55:16 2023

Wall Time:        0.27 seconds

                                                       Time (seconds)
Module                                       User      System        Wall        Calls

--------------------------------------------------------------------------------------

**************************************************************************************

Host: smg13363-ws

Timers On : Tue Jan 10 15:55:21 2023
Timers Off: Tue Jan 10 15:55:22 2023

Wall Time:        0.26 seconds

                                                       Time (seconds)
Module                                       User      System        Wall        Calls

--------------------------------------------------------------------------------------

**************************************************************************************

Host: smg13363-ws

Timers On : Tue Jan 10 15:55:34 2023
Timers Off: Tue Jan 10 15:55:34 2023

Wall Time:        0.27 seconds

                                                       Time (seconds)
Module                                       User      System        Wall        Calls

--------------------------------------------------------------------------------------

**************************************************************************************

Host: smg13363-ws

Timers On : Wed Jan 11 11:54:47 2023
Timers Off: Wed Jan 11 11:54:48 2023

Wall Time:        0.29 seconds

                                                       Time (seconds)
Module                                       User      System        Wall        Calls

--------------------------------------------------------------------------------------

**************************************************************************************

Host: smg13363-ws

Timers On : Wed Jan 11 11:57:24 2023
Timers Off: Wed Jan 11 11:57:24 2023

Wall Time:        0.29 seconds

                                                       Time (seconds)
Module                                       User      System        Wall        Calls

--------------------------------------------------------------------------------------

**************************************************************************************

Host: smg13363-ws

Timers On : Wed Jan 11 11:57:56 2023
Timers Off: Wed Jan 11 11:57:56 2023

Wall Time:        0.28 seconds

                                                       Time (seconds)
Module                                       User      System        Wall        Calls

--------------------------------------------------------------------------------------

**************************************************************************************

Host: smg13363-ws

Timers On : Wed Jan 11 12:00:10 2023
Timers Off: Wed Jan 11 12:00:10 2023

Wall Time:        0.28 seconds

                                                       Time (seconds)
Module                                       User      System        Wall        Calls

--------------------------------------------------------------------------------------

**************************************************************************************

Host: smg13363-ws

Timers On : Wed Jan 11 12:01:15 2023
Timers Off: Wed Jan 11 12:01:16 2023

Wall Time:        0.28 seconds

                                                       Time (seconds)
Module                                       User      System        Wall        Calls

--------------------------------------------------------------------------------------

**************************************************************************************

Host: smg13363-ws

Timers On : Wed Jan 11 12:04:50 2023
Timers Off: Wed Jan 11 12:04:51 2023

Wall Time:        0.28 seconds

                                                       Time (seconds)
Module                                       User      System        Wall        Calls

--------------------------------------------------------------------------------------

**************************************************************************************

Host: smg13363-ws

Timers On : Wed Jan 11 12:06:08 2023
Timers Off: Wed Jan 11 12:06:09 2023

Wall Time:        0.28 seconds

                                                       Time (seconds)
Module                                       User      System        Wall        Calls

--------------------------------------------------------------------------------------

**************************************************************************************

Host: smg13363-ws

Timers On : Wed Jan 11 12:06:46 2023
Timers Off: Wed Jan 11 12:06:47 2023

Wall Time:        0.28 seconds

                                                       Time (seconds)
Module                                       User      System        Wall        Calls

--------------------------------------------------------------------------------------

**************************************************************************************

Host: smg13363-ws

Timers On : Wed Jan 11 12:07:31 2023
Timers Off: Wed Jan 11 12:07:31 2023

Wall Time:        0.28 seconds

                                                       Time (seconds)
Module                                       User      System        Wall        Calls

--------------------------------------------------------------------------------------

**************************************************************************************

Host: smg13363-ws

Timers On : Wed Jan 11 12:08:35 2023
Timers Off: Wed Jan 11 12:08:36 2023

Wall Time:        0.29 seconds

                                                       Time (seconds)
Module                                       User      System        Wall        Calls

--------------------------------------------------------------------------------------

**************************************************************************************

Host: smg13363-ws

Timers On : Wed Jan 11 12:08:50 2023
Timers Off: Wed Jan 11 12:08:50 2023

Wall Time:        0.28 seconds

                                                       Time (seconds)
Module                                       User      System        Wall        Calls

--------------------------------------------------------------------------------------

**************************************************************************************

Host: smg13363-ws

Timers On : Wed Jan 11 12:09:24 2023
Timers Off: Wed Jan 11 12:09:25 2023

Wall Time:        0.28 seconds

                                                       Time (seconds)
Module                                       User      System        Wall        Calls

--------------------------------------------------------------------------------------

**************************************************************************************

Host: smg13363-ws

Timers On : Wed Jan 11 12:10:25 2023
Timers Off: Wed Jan 11 12:10:25 2023

Wall Time:        0.28 seconds

                                                       Time (seconds)
Module                                       User      System        Wall        Calls

--------------------------------------------------------------------------------------

**************************************************************************************

Host: smg13363-ws

Timers On : Wed Jan 11 12:12:33 2023
Timers Off: Wed Jan 11 12:12:33 2023

Wall Time:        0.28 seconds

                                                       Time (seconds)
Module                                       User      System        Wall        Calls

--------------------------------------------------------------------------------------

**************************************************************************************

Host: smg13363-ws

Timers On : Wed Jan 11 12:13:13 2023
Timers Off: Wed Jan 11 12:13:13 2023

Wall Time:        0.28 seconds

                                                       Time (seconds)
Module                                       User      System        Wall        Calls

--------------------------------------------------------------------------------------

**************************************************************************************

Host: smg13363-ws

Timers On : Wed Jan 11 12:13:40 2023
Timers Off: Wed Jan 11 12:13:40 2023

Wall Time:        0.28 seconds

                                                       Time (seconds)
Module                                       User      System        Wall        Calls

--------------------------------------------------------------------------------------

**************************************************************************************

Host: smg13363-ws

Timers On : Wed Jan 11 12:14:19 2023
Timers Off: Wed Jan 11 12:14:20 2023

Wall Time:        0.28 seconds

                                                       Time (seconds)
Module                                       User      System        Wall        Calls

--------------------------------------------------------------------------------------

**************************************************************************************

Host: smg13363-ws

Timers On : Wed Jan 11 12:14:55 2023
Timers Off: Wed Jan 11 12:14:55 2023

Wall Time:        0.28 seconds

                                                       Time (seconds)
Module                                       User      System        Wall        Calls

--------------------------------------------------------------------------------------

**************************************************************************************

Host: smg13363-ws

Timers On : Wed Jan 11 12:15:41 2023
Timers Off: Wed Jan 11 12:15:42 2023

Wall Time:        0.28 seconds

                                                       Time (seconds)
Module                                       User      System        Wall        Calls

--------------------------------------------------------------------------------------

**************************************************************************************

Host: smg13363-ws

Timers On : Wed Jan 11 12:19:25 2023
Timers Off: Wed Jan 11 12:19:25 2023

Wall Time:        0.26 seconds

                                                       Time (seconds)
Module                                       User      System        Wall        Calls

--------------------------------------------------------------------------------------

**************************************************************************************

Host: smg13363-ws

Timers On : Wed Jan 11 13:15:47 2023
Timers Off: Wed Jan 11 13:15:47 2023

Wall Time:        0.29 seconds

                                                       Time (seconds)
Module                                       User      System        Wall        Calls

--------------------------------------------------------------------------------------

**************************************************************************************

Host: smg13363-ws

Timers On : Wed Jan 11 13:17:04 2023
Timers Off: Wed Jan 11 13:17:05 2023

Wall Time:        0.30 seconds

                                                       Time (seconds)
Module                                       User      System        Wall        Calls

--------------------------------------------------------------------------------------

**************************************************************************************

Host: smg13363-ws

Timers On : Wed Jan 11 13:17:23 2023
Timers Off: Wed Jan 11 13:17:23 2023

Wall Time:        0.39 seconds

                                                       Time (seconds)
Module                                       User      System        Wall        Calls

--------------------------------------------------------------------------------------

**************************************************************************************

Host: smg13363-ws

Timers On : Wed Jan 11 13:17:39 2023
Timers Off: Wed Jan 11 13:17:39 2023

Wall Time:        0.42 seconds

                                                       Time (seconds)
Module                                       User      System        Wall        Calls

--------------------------------------------------------------------------------------

**************************************************************************************

Host: smg13363-ws

Timers On : Wed Jan 11 13:18:08 2023
Timers Off: Wed Jan 11 13:18:09 2023

Wall Time:        0.40 seconds

                                                       Time (seconds)
Module                                       User      System        Wall        Calls

--------------------------------------------------------------------------------------

**************************************************************************************

Host: smg13363-ws

Timers On : Wed Jan 11 13:18:57 2023
Timers Off: Wed Jan 11 13:18:57 2023

Wall Time:        0.40 seconds

                                                       Time (seconds)
Module                                       User      System        Wall        Calls

--------------------------------------------------------------------------------------

**************************************************************************************

Host: smg13363-ws

Timers On : Wed Jan 11 13:20:36 2023
Timers Off: Wed Jan 11 13:20:36 2023

Wall Time:        0.39 seconds

                                                       Time (seconds)
Module                                       User      System        Wall        Calls

--------------------------------------------------------------------------------------

**************************************************************************************

Host: smg13363-ws

Timers On : Wed Jan 11 13:21:03 2023
Timers Off: Wed Jan 11 13:21:03 2023

Wall Time:        0.39 seconds

                                                       Time (seconds)
Module                                       User      System        Wall        Calls

--------------------------------------------------------------------------------------

**************************************************************************************

Host: smg13363-ws

Timers On : Wed Jan 11 13:22:26 2023
Timers Off: Wed Jan 11 13:22:27 2023

Wall Time:        0.40 seconds

                                                       Time (seconds)
Module                                       User      System        Wall        Calls

--------------------------------------------------------------------------------------

**************************************************************************************

Host: smg13363-ws

Timers On : Wed Jan 11 13:25:44 2023
Timers Off: Wed Jan 11 13:25:44 2023

Wall Time:        0.39 seconds

                                                       Time (seconds)
Module                                       User      System        Wall        Calls

--------------------------------------------------------------------------------------

**************************************************************************************

Host: smg13363-ws

Timers On : Wed Jan 11 13:27:30 2023
Timers Off: Wed Jan 11 13:27:30 2023

Wall Time:        0.39 seconds

                                                       Time (seconds)
Module                                       User      System        Wall        Calls

--------------------------------------------------------------------------------------

**************************************************************************************

Host: smg13363-ws

Timers On : Wed Jan 11 13:27:59 2023
Timers Off: Wed Jan 11 13:27:59 2023

Wall Time:        0.40 seconds

                                                       Time (seconds)
Module                                       User      System        Wall        Calls

--------------------------------------------------------------------------------------

**************************************************************************************

Host: smg13363-ws

Timers On : Wed Jan 11 13:28:43 2023
Timers Off: Wed Jan 11 13:28:43 2023

Wall Time:        0.39 seconds

                                                       Time (seconds)
Module                                       User      System        Wall        Calls

--------------------------------------------------------------------------------------

**************************************************************************************

Host: smg13363-ws

Timers On : Wed Jan 11 13:29:04 2023
Timers Off: Wed Jan 11 13:29:05 2023

Wall Time:        0.29 seconds

                                                       Time (seconds)
Module                                       User      System        Wall        Calls

--------------------------------------------------------------------------------------

**************************************************************************************

Host: smg13363-ws

Timers On : Wed Jan 11 13:29:22 2023
Timers Off: Wed Jan 11 13:29:22 2023

Wall Time:        0.27 seconds

                                                       Time (seconds)
Module                                       User      System        Wall        Calls

--------------------------------------------------------------------------------------

**************************************************************************************

Host: smg13363-ws

Timers On : Wed Jan 11 13:29:35 2023
Timers Off: Wed Jan 11 13:29:35 2023

Wall Time:        0.27 seconds

                                                       Time (seconds)
Module                                       User      System        Wall        Calls

--------------------------------------------------------------------------------------

**************************************************************************************

Host: smg13363-ws

Timers On : Wed Jan 11 13:29:49 2023
Timers Off: Wed Jan 11 13:29:49 2023

Wall Time:        0.26 seconds

                                                       Time (seconds)
Module                                       User      System        Wall        Calls

--------------------------------------------------------------------------------------

**************************************************************************************

Host: smg13363-ws

Timers On : Wed Jan 11 13:30:16 2023
Timers Off: Wed Jan 11 13:30:16 2023

Wall Time:        0.27 seconds

                                                       Time (seconds)
Module                                       User      System        Wall        Calls

--------------------------------------------------------------------------------------

**************************************************************************************

Host: smg13363-ws

Timers On : Wed Jan 11 13:31:50 2023
Timers Off: Wed Jan 11 13:31:50 2023

Wall Time:        0.27 seconds

                                                       Time (seconds)
Module                                       User      System        Wall        Calls

--------------------------------------------------------------------------------------

**************************************************************************************

Host: smg13363-ws

Timers On : Wed Jan 11 13:32:01 2023
Timers Off: Wed Jan 11 13:32:01 2023

Wall Time:        0.26 seconds

                                                       Time (seconds)
Module                                       User      System        Wall        Calls

--------------------------------------------------------------------------------------

**************************************************************************************

Host: smg13363-ws

Timers On : Wed Jan 11 13:32:09 2023
Timers Off: Wed Jan 11 13:32:09 2023

Wall Time:        0.26 seconds

                                                       Time (seconds)
Module                                       User      System        Wall        Calls

--------------------------------------------------------------------------------------

**************************************************************************************

Host: smg13363-ws

Timers On : Wed Jan 11 13:32:17 2023
Timers Off: Wed Jan 11 13:32:17 2023

Wall Time:        0.27 seconds

                                                       Time (seconds)
Module                                       User      System        Wall        Calls

--------------------------------------------------------------------------------------

**************************************************************************************

Host: smg13363-ws

Timers On : Wed Jan 11 13:33:59 2023
Timers Off: Wed Jan 11 13:34:00 2023

Wall Time:        0.26 seconds

                                                       Time (seconds)
Module                                       User      System        Wall        Calls

--------------------------------------------------------------------------------------

**************************************************************************************

Host: smg13363-ws

Timers On : Wed Jan 11 13:34:32 2023
Timers Off: Wed Jan 11 13:34:32 2023

Wall Time:        0.26 seconds

                                                       Time (seconds)
Module                                       User      System        Wall        Calls

--------------------------------------------------------------------------------------

**************************************************************************************

Host: smg13363-ws

Timers On : Wed Jan 11 13:34:41 2023
Timers Off: Wed Jan 11 13:34:41 2023

Wall Time:        0.26 seconds

                                                       Time (seconds)
Module                                       User      System        Wall        Calls

--------------------------------------------------------------------------------------

**************************************************************************************

Host: smg13363-ws

Timers On : Wed Jan 11 13:36:54 2023
Timers Off: Wed Jan 11 13:36:55 2023

Wall Time:        0.26 seconds

                                                       Time (seconds)
Module                                       User      System        Wall        Calls

--------------------------------------------------------------------------------------

**************************************************************************************

Host: smg13363-ws

Timers On : Wed Jan 11 13:37:10 2023
Timers Off: Wed Jan 11 13:37:10 2023

Wall Time:        0.26 seconds

                                                       Time (seconds)
Module                                       User      System        Wall        Calls

--------------------------------------------------------------------------------------

**************************************************************************************

Host: smg13363-ws

Timers On : Wed Jan 11 13:37:55 2023
Timers Off: Wed Jan 11 13:37:55 2023

Wall Time:        0.26 seconds

                                                       Time (seconds)
Module                                       User      System        Wall        Calls

--------------------------------------------------------------------------------------

**************************************************************************************

Host: smg13363-ws

Timers On : Wed Jan 11 13:38:06 2023
Timers Off: Wed Jan 11 13:38:06 2023

Wall Time:        0.26 seconds

                                                       Time (seconds)
Module                                       User      System        Wall        Calls

--------------------------------------------------------------------------------------

**************************************************************************************

Host: smg13363-ws

Timers On : Wed Jan 11 13:38:41 2023
Timers Off: Wed Jan 11 13:38:41 2023

Wall Time:        0.27 seconds

                                                       Time (seconds)
Module                                       User      System        Wall        Calls

--------------------------------------------------------------------------------------

**************************************************************************************

Host: smg13363-ws

Timers On : Wed Jan 11 13:39:14 2023
Timers Off: Wed Jan 11 13:39:15 2023

Wall Time:        0.26 seconds

                                                       Time (seconds)
Module                                       User      System        Wall        Calls

--------------------------------------------------------------------------------------

**************************************************************************************

Host: smg13363-ws

Timers On : Wed Jan 11 13:40:38 2023
Timers Off: Wed Jan 11 13:40:38 2023

Wall Time:        0.29 seconds

                                                       Time (seconds)
Module                                       User      System        Wall        Calls

--------------------------------------------------------------------------------------

**************************************************************************************

Host: smg13363-ws

Timers On : Wed Jan 11 13:42:20 2023
Timers Off: Wed Jan 11 13:42:20 2023

Wall Time:        0.29 seconds

                                                       Time (seconds)
Module                                       User      System        Wall        Calls

--------------------------------------------------------------------------------------

**************************************************************************************

Host: smg13363-ws

Timers On : Wed Jan 11 13:44:01 2023
Timers Off: Wed Jan 11 13:44:01 2023

Wall Time:        0.30 seconds

                                                       Time (seconds)
Module                                       User      System        Wall        Calls

--------------------------------------------------------------------------------------

**************************************************************************************

Host: smg13363-ws

Timers On : Wed Jan 11 13:44:22 2023
Timers Off: Wed Jan 11 13:44:22 2023

Wall Time:        0.30 seconds

                                                       Time (seconds)
Module                                       User      System        Wall        Calls

--------------------------------------------------------------------------------------

**************************************************************************************

Host: smg13363-ws

Timers On : Wed Jan 11 13:44:49 2023
Timers Off: Wed Jan 11 13:44:49 2023

Wall Time:        0.28 seconds

                                                       Time (seconds)
Module                                       User      System        Wall        Calls

--------------------------------------------------------------------------------------

**************************************************************************************

Host: smg13363-ws

Timers On : Wed Jan 11 13:45:16 2023
Timers Off: Wed Jan 11 13:45:17 2023

Wall Time:        0.26 seconds

                                                       Time (seconds)
Module                                       User      System        Wall        Calls

--------------------------------------------------------------------------------------

**************************************************************************************

Host: smg13363-ws

Timers On : Wed Jan 11 13:46:09 2023
Timers Off: Wed Jan 11 13:46:09 2023

Wall Time:        0.26 seconds

                                                       Time (seconds)
Module                                       User      System        Wall        Calls

--------------------------------------------------------------------------------------

[...]

--------------------------------------------------------------------------------------

**************************************************************************************

Host: smg13363-ws

Timers On : Wed Jan 11 14:14:45 2023
Timers Off: Wed Jan 11 14:14:45 2023

Wall Time:        0.30 seconds

                                                       Time (seconds)
Module                                       User      System        Wall        Calls

--------------------------------------------------------------------------------------

**************************************************************************************

Host: smg13363-ws

Timers On : Wed Jan 11 14:14:59 2023
Timers Off: Wed Jan 11 14:15:00 2023

Wall Time:        0.26 seconds

                                                       Time (seconds)
Module                                       User      System        Wall        Calls

--------------------------------------------------------------------------------------

**************************************************************************************

Host: smg13363-ws

Timers On : Wed Jan 11 14:25:12 2023
Timers Off: Wed Jan 11 14:25:12 2023

Wall Time:        0.26 seconds

                                                       Time (seconds)
Module                                       User      System        Wall        Calls

--------------------------------------------------------------------------------------

**************************************************************************************

Host: smg13363-ws

Timers On : Wed Jan 11 14:29:37 2023
Timers Off: Wed Jan 11 14:29:38 2023

Wall Time:        0.27 seconds

                                                       Time (seconds)
Module                                       User      System        Wall        Calls

--------------------------------------------------------------------------------------

**************************************************************************************

Host: smg13363-ws

Timers On : Wed Jan 11 14:31:55 2023
Timers Off: Wed Jan 11 14:31:55 2023

Wall Time:        0.26 seconds

                                                       Time (seconds)
Module                                       User      System        Wall        Calls

--------------------------------------------------------------------------------------

**************************************************************************************

Host: smg13363-ws

Timers On : Wed Jan 11 14:32:22 2023
Timers Off: Wed Jan 11 14:32:23 2023

Wall Time:        0.26 seconds

                                                       Time (seconds)
Module                                       User      System        Wall        Calls

--------------------------------------------------------------------------------------

**************************************************************************************

Host: smg13363-ws

Timers On : Wed Jan 11 14:34:03 2023
Timers Off: Wed Jan 11 14:34:03 2023

Wall Time:        0.27 seconds

                                                       Time (seconds)
Module                                       User      System        Wall        Calls

--------------------------------------------------------------------------------------

**************************************************************************************

Host: smg13363-ws

Timers On : Wed Jan 11 14:34:13 2023
Timers Off: Wed Jan 11 14:34:13 2023

Wall Time:        0.26 seconds

                                                       Time (seconds)
Module                                       User      System        Wall        Calls

--------------------------------------------------------------------------------------

**************************************************************************************

Host: smg13363-ws

Timers On : Wed Jan 11 14:35:21 2023
Timers Off: Wed Jan 11 14:35:21 2023

Wall Time:        0.27 seconds

                                                       Time (seconds)
Module                                       User      System        Wall        Calls

--------------------------------------------------------------------------------------

**************************************************************************************

Host: smg13363-ws

Timers On : Wed Jan 11 14:36:00 2023
Timers Off: Wed Jan 11 14:36:00 2023

Wall Time:        0.27 seconds

                                                       Time (seconds)
Module                                       User      System        Wall        Calls

--------------------------------------------------------------------------------------

**************************************************************************************

Host: smg13363-ws

Timers On : Wed Jan 11 14:37:27 2023
Timers Off: Wed Jan 11 14:37:27 2023

Wall Time:        0.27 seconds

                                                       Time (seconds)
Module                                       User      System        Wall        Calls

--------------------------------------------------------------------------------------

**************************************************************************************

Host: smg13363-ws

Timers On : Wed Jan 11 14:39:04 2023
Timers Off: Wed Jan 11 14:39:05 2023

Wall Time:        0.27 seconds

                                                       Time (seconds)
Module                                       User      System        Wall        Calls

--------------------------------------------------------------------------------------

**************************************************************************************

Host: smg13363-ws

Timers On : Wed Jan 11 14:42:31 2023
Timers Off: Wed Jan 11 14:42:32 2023

Wall Time:        0.28 seconds

                                                       Time (seconds)
Module                                       User      System        Wall        Calls

--------------------------------------------------------------------------------------

**************************************************************************************

Host: smg13363-ws

Timers On : Wed Jan 11 14:44:03 2023
Timers Off: Wed Jan 11 14:44:03 2023

Wall Time:        0.27 seconds

                                                       Time (seconds)
Module                                       User      System        Wall        Calls

--------------------------------------------------------------------------------------

**************************************************************************************

Host: smg13363-ws

Timers On : Wed Jan 11 14:45:05 2023
Timers Off: Wed Jan 11 14:45:05 2023

Wall Time:        0.28 seconds

                                                       Time (seconds)
Module                                       User      System        Wall        Calls

--------------------------------------------------------------------------------------

**************************************************************************************

Host: smg13363-ws

Timers On : Wed Jan 11 14:45:47 2023
Timers Off: Wed Jan 11 14:45:47 2023

Wall Time:        0.29 seconds

                                                       Time (seconds)
Module                                       User      System        Wall        Calls

--------------------------------------------------------------------------------------

**************************************************************************************

Host: smg13363-ws

Timers On : Wed Jan 11 14:46:10 2023
Timers Off: Wed Jan 11 14:46:10 2023

Wall Time:        0.29 seconds

                                                       Time (seconds)
Module                                       User      System        Wall        Calls

--------------------------------------------------------------------------------------

**************************************************************************************

Host: smg13363-ws

Timers On : Wed Jan 11 14:46:30 2023
Timers Off: Wed Jan 11 14:46:30 2023

Wall Time:        0.26 seconds

                                                       Time (seconds)
Module                                       User      System        Wall        Calls

--------------------------------------------------------------------------------------

**************************************************************************************

Host: smg13363-ws

Timers On : Wed Jan 11 14:47:30 2023
Timers Off: Wed Jan 11 14:47:31 2023

Wall Time:        0.28 seconds

                                                       Time (seconds)
Module                                       User      System        Wall        Calls

--------------------------------------------------------------------------------------

**************************************************************************************

Host: smg13363-ws

Timers On : Wed Jan 11 14:48:21 2023
Timers Off: Wed Jan 11 14:48:22 2023

Wall Time:        0.26 seconds

                                                       Time (seconds)
Module                                       User      System        Wall        Calls

--------------------------------------------------------------------------------------

**************************************************************************************

Host: smg13363-ws

Timers On : Wed Jan 11 14:50:14 2023
Timers Off: Wed Jan 11 14:50:14 2023

Wall Time:        0.27 seconds

                                                       Time (seconds)
Module                                       User      System        Wall        Calls

--------------------------------------------------------------------------------------

**************************************************************************************

Host: smg13363-ws

Timers On : Wed Jan 11 14:50:22 2023
Timers Off: Wed Jan 11 14:50:22 2023

Wall Time:        0.27 seconds

                                                       Time (seconds)
Module                                       User      System        Wall        Calls

--------------------------------------------------------------------------------------

**************************************************************************************

Host: smg13363-ws

Timers On : Wed Jan 11 14:50:49 2023
Timers Off: Wed Jan 11 14:50:49 2023

Wall Time:        0.27 seconds

                                                       Time (seconds)
Module                                       User      System        Wall        Calls

--------------------------------------------------------------------------------------

**************************************************************************************

Host: smg13363-ws

Timers On : Wed Jan 11 14:52:45 2023
Timers Off: Wed Jan 11 14:52:45 2023

Wall Time:        0.26 seconds

                                                       Time (seconds)
Module                                       User      System        Wall        Calls

--------------------------------------------------------------------------------------

**************************************************************************************

Host: smg13363-ws

Timers On : Wed Jan 11 14:57:15 2023
Timers Off: Wed Jan 11 14:57:15 2023

Wall Time:        0.26 seconds

                                                       Time (seconds)
Module                                       User      System        Wall        Calls

--------------------------------------------------------------------------------------

**************************************************************************************

Host: smg13363-ws

Timers On : Wed Jan 11 15:01:30 2023
Timers Off: Wed Jan 11 15:01:30 2023

Wall Time:        0.27 seconds

                                                       Time (seconds)
Module                                       User      System        Wall        Calls

--------------------------------------------------------------------------------------

**************************************************************************************

Host: smg13363-ws

Timers On : Wed Jan 11 15:02:25 2023
Timers Off: Wed Jan 11 15:02:26 2023

Wall Time:        0.26 seconds

                                                       Time (seconds)
Module                                       User      System        Wall        Calls

--------------------------------------------------------------------------------------

**************************************************************************************

Host: smg13363-ws

Timers On : Wed Jan 11 15:03:06 2023
Timers Off: Wed Jan 11 15:03:06 2023

Wall Time:        0.26 seconds

                                                       Time (seconds)
Module                                       User      System        Wall        Calls

--------------------------------------------------------------------------------------

**************************************************************************************

Host: smg13363-ws

Timers On : Wed Jan 11 15:03:49 2023
Timers Off: Wed Jan 11 15:03:49 2023

Wall Time:        0.26 seconds

                                                       Time (seconds)
Module                                       User      System        Wall        Calls

--------------------------------------------------------------------------------------

**************************************************************************************

Host: smg13363-ws

Timers On : Wed Jan 11 15:06:32 2023
Timers Off: Wed Jan 11 15:06:32 2023

Wall Time:        0.30 seconds

                                                       Time (seconds)
Module                                       User      System        Wall        Calls

--------------------------------------------------------------------------------------

**************************************************************************************

Host: smg13363-ws

Timers On : Wed Jan 11 15:06:49 2023
Timers Off: Wed Jan 11 15:06:50 2023

Wall Time:        0.39 seconds

                                                       Time (seconds)
Module                                       User      System        Wall        Calls

--------------------------------------------------------------------------------------

**************************************************************************************

Host: smg13363-ws

Timers On : Wed Jan 11 15:10:36 2023
Timers Off: Wed Jan 11 15:10:36 2023

Wall Time:        0.40 seconds

                                                       Time (seconds)
Module                                       User      System        Wall        Calls

--------------------------------------------------------------------------------------

**************************************************************************************

Host: smg13363-ws

Timers On : Wed Jan 11 15:12:53 2023
Timers Off: Wed Jan 11 15:12:54 2023

Wall Time:        0.39 seconds

                                                       Time (seconds)
Module                                       User      System        Wall        Calls

--------------------------------------------------------------------------------------

**************************************************************************************

Host: smg13363-ws

Timers On : Wed Jan 11 15:13:07 2023
Timers Off: Wed Jan 11 15:13:08 2023

Wall Time:        0.39 seconds

                                                       Time (seconds)
Module                                       User      System        Wall        Calls

--------------------------------------------------------------------------------------

**************************************************************************************

Host: smg13363-ws

Timers On : Wed Jan 11 15:13:55 2023
Timers Off: Wed Jan 11 15:13:55 2023

Wall Time:        0.39 seconds

                                                       Time (seconds)
Module                                       User      System        Wall        Calls

--------------------------------------------------------------------------------------

**************************************************************************************

Host: smg13363-ws

Timers On : Wed Jan 11 15:15:12 2023
Timers Off: Wed Jan 11 15:15:12 2023

Wall Time:        0.44 seconds

                                                       Time (seconds)
Module                                       User      System        Wall        Calls

--------------------------------------------------------------------------------------

**************************************************************************************

Host: smg13363-ws

Timers On : Wed Jan 11 15:15:47 2023
Timers Off: Wed Jan 11 15:15:47 2023

Wall Time:        0.44 seconds

                                                       Time (seconds)
Module                                       User      System        Wall        Calls

--------------------------------------------------------------------------------------

**************************************************************************************

Host: smg13363-ws

Timers On : Wed Jan 11 15:16:07 2023
Timers Off: Wed Jan 11 15:16:08 2023

Wall Time:        0.44 seconds

                                                       Time (seconds)
Module                                       User      System        Wall        Calls

--------------------------------------------------------------------------------------

**************************************************************************************

Host: smg13363-ws

Timers On : Wed Jan 11 15:16:24 2023
Timers Off: Wed Jan 11 15:16:24 2023

Wall Time:        0.46 seconds

                                                       Time (seconds)
Module                                       User      System        Wall        Calls

--------------------------------------------------------------------------------------

**************************************************************************************

Host: smg13363-ws

Timers On : Wed Jan 11 15:17:09 2023
Timers Off: Wed Jan 11 15:17:09 2023

Wall Time:        0.40 seconds

                                                       Time (seconds)
Module                                       User      System        Wall        Calls

--------------------------------------------------------------------------------------

**************************************************************************************

Host: smg13363-ws

Timers On : Wed Jan 11 15:56:24 2023
Timers Off: Wed Jan 11 15:56:25 2023

Wall Time:        0.53 seconds

                                                       Time (seconds)
Module                                       User      System        Wall        Calls

--------------------------------------------------------------------------------------

**************************************************************************************

Host: smg13363-ws

Timers On : Wed Jan 11 15:57:14 2023
Timers Off: Wed Jan 11 15:58:05 2023

Wall Time:       51.00 seconds

                                                       Time (seconds)
Module                                       User      System        Wall        Calls

--------------------------------------------------------------------------------------

**************************************************************************************

Host: smg13363-ws

Timers On : Wed Jan 11 15:59:10 2023
Timers Off: Wed Jan 11 15:59:36 2023

Wall Time:       25.39 seconds

                                                       Time (seconds)
Module                                       User      System        Wall        Calls

--------------------------------------------------------------------------------------

**************************************************************************************
