
Host: smg13363-ws

Timers On : Mon Feb 21 10:25:31 2022
Timers Off: Mon Feb 21 10:25:32 2022

Wall Time:        0.45 seconds

                                                       Time (seconds)
Module                                       User      System        Wall        Calls
Libint2ERI::Libint2ERI              :      0.000u      0.000s      0.000w      1 calls

--------------------------------------------------------------------------------------
Libint2ERI::Libint2ERI              :      0.000u      0.000s      0.000w      1 calls

**************************************************************************************

Host: smg13363-ws

Timers On : Mon Feb 21 10:26:01 2022
Timers Off: Mon Feb 21 10:26:02 2022

Wall Time:        0.40 seconds

                                                       Time (seconds)
Module                                       User      System        Wall        Calls
Libint2ERI::Libint2ERI              :      0.000u      0.000s      0.000w      1 calls

--------------------------------------------------------------------------------------
Libint2ERI::Libint2ERI              :      0.000u      0.000s      0.000w      1 calls

**************************************************************************************

Host: smg13363-ws

Timers On : Mon Feb 21 10:37:02 2022
Timers Off: Mon Feb 21 10:37:02 2022

Wall Time:        0.28 seconds

                                                       Time (seconds)
Module                                       User      System        Wall        Calls

--------------------------------------------------------------------------------------

**************************************************************************************

Host: smg13363-ws

Timers On : Mon Feb 21 10:38:43 2022
Timers Off: Mon Feb 21 10:38:44 2022

Wall Time:        0.52 seconds

                                                       Time (seconds)
Module                                       User      System        Wall        Calls
Libint2ERI::Libint2ERI              :      0.000u      0.000s      0.000w      1 calls

--------------------------------------------------------------------------------------
Libint2ERI::Libint2ERI              :      0.000u      0.000s      0.000w      1 calls

**************************************************************************************

Host: smg13363-ws

Timers On : Mon Feb 21 10:41:07 2022
Timers Off: Mon Feb 21 10:41:08 2022

Wall Time:        0.51 seconds

                                                       Time (seconds)
Module                                       User      System        Wall        Calls
Libint2ERI::Libint2ERI              :      0.000u      0.000s      0.000w      1 calls

--------------------------------------------------------------------------------------
Libint2ERI::Libint2ERI              :      0.000u      0.000s      0.000w      1 calls

**************************************************************************************

Host: smg13363-ws

Timers On : Mon Feb 21 10:52:52 2022
Timers Off: Mon Feb 21 10:52:53 2022

Wall Time:        0.53 seconds

                                                       Time (seconds)
Module                                       User      System        Wall        Calls
Libint2ERI::Libint2ERI              :      0.000u      0.000s      0.000w      1 calls

--------------------------------------------------------------------------------------
Libint2ERI::Libint2ERI              :      0.000u      0.000s      0.000w      1 calls

**************************************************************************************

Host: smg13363-ws

Timers On : Mon Feb 21 11:02:01 2022
Timers Off: Mon Feb 21 11:02:02 2022

Wall Time:        0.45 seconds

                                                       Time (seconds)
Module                                       User      System        Wall        Calls
Libint2ERI::Libint2ERI              :      0.000u      0.000s      0.004w      1 calls

--------------------------------------------------------------------------------------
Libint2ERI::Libint2ERI              :      0.000u      0.000s      0.004w      1 calls

**************************************************************************************

Host: smg13363-ws

Timers On : Mon Feb 21 11:14:37 2022
Timers Off: Mon Feb 21 11:14:38 2022

Wall Time:        0.52 seconds

                                                       Time (seconds)
Module                                       User      System        Wall        Calls
Libint2ERI::Libint2ERI              :      0.000u      0.000s      0.000w      1 calls

--------------------------------------------------------------------------------------
Libint2ERI::Libint2ERI              :      0.000u      0.000s      0.000w      1 calls

**************************************************************************************

Host: smg13363-ws

Timers On : Tue Feb 22 14:36:23 2022
Timers Off: Tue Feb 22 14:36:23 2022

Wall Time:        0.23 seconds

                                                       Time (seconds)
Module                                       User      System        Wall        Calls

--------------------------------------------------------------------------------------

**************************************************************************************

Host: smg13363-ws

Timers On : Tue Feb 22 14:37:28 2022
Timers Off: Tue Feb 22 14:37:29 2022

Wall Time:        0.22 seconds

                                                       Time (seconds)
Module                                       User      System        Wall        Calls

--------------------------------------------------------------------------------------

**************************************************************************************

Host: smg13363-ws

Timers On : Tue Feb 22 14:39:59 2022
Timers Off: Tue Feb 22 14:39:59 2022

Wall Time:        0.23 seconds

                                                       Time (seconds)
Module                                       User      System        Wall        Calls

--------------------------------------------------------------------------------------

**************************************************************************************

Host: smg13363-ws

Timers On : Tue Feb 22 14:41:51 2022
Timers Off: Tue Feb 22 14:41:51 2022

Wall Time:        0.22 seconds

                                                       Time (seconds)
Module                                       User      System        Wall        Calls

--------------------------------------------------------------------------------------

**************************************************************************************

Host: smg13363-ws

Timers On : Tue Feb 22 14:42:15 2022
Timers Off: Tue Feb 22 14:42:15 2022

Wall Time:        0.22 seconds

                                                       Time (seconds)
Module                                       User      System        Wall        Calls

--------------------------------------------------------------------------------------

**************************************************************************************

Host: smg13363-ws

Timers On : Tue Feb 22 14:42:35 2022
Timers Off: Tue Feb 22 14:42:35 2022

Wall Time:        0.22 seconds

                                                       Time (seconds)
Module                                       User      System        Wall        Calls

--------------------------------------------------------------------------------------

**************************************************************************************

Host: smg13363-ws

Timers On : Tue Feb 22 14:45:23 2022
Timers Off: Tue Feb 22 14:45:24 2022

Wall Time:        0.23 seconds

                                                       Time (seconds)
Module                                       User      System        Wall        Calls

--------------------------------------------------------------------------------------

**************************************************************************************

Host: smg13363-ws

Timers On : Tue Feb 22 14:45:37 2022
Timers Off: Tue Feb 22 14:45:37 2022

Wall Time:        0.22 seconds

                                                       Time (seconds)
Module                                       User      System        Wall        Calls

--------------------------------------------------------------------------------------

**************************************************************************************

Host: smg13363-ws

Timers On : Tue Feb 22 14:47:37 2022
Timers Off: Tue Feb 22 14:47:37 2022

Wall Time:        0.22 seconds

                                                       Time (seconds)
Module                                       User      System        Wall        Calls

--------------------------------------------------------------------------------------

**************************************************************************************

Host: smg13363-ws

Timers On : Tue Feb 22 14:47:51 2022
Timers Off: Tue Feb 22 14:47:52 2022

Wall Time:        0.23 seconds

                                                       Time (seconds)
Module                                       User      System        Wall        Calls

--------------------------------------------------------------------------------------

**************************************************************************************

Host: smg13363-ws

Timers On : Tue Feb 22 14:48:51 2022
Timers Off: Tue Feb 22 14:48:51 2022

Wall Time:        0.22 seconds

                                                       Time (seconds)
Module                                       User      System        Wall        Calls

--------------------------------------------------------------------------------------

**************************************************************************************

Host: smg13363-ws

Timers On : Tue Feb 22 14:52:08 2022
Timers Off: Tue Feb 22 14:52:08 2022

Wall Time:        0.22 seconds

                                                       Time (seconds)
Module                                       User      System        Wall        Calls

--------------------------------------------------------------------------------------

**************************************************************************************

Host: smg13363-ws

Timers On : Tue Feb 22 15:08:15 2022
Timers Off: Tue Feb 22 15:08:15 2022

Wall Time:        0.22 seconds

                                                       Time (seconds)
Module                                       User      System        Wall        Calls

--------------------------------------------------------------------------------------

**************************************************************************************

Host: smg13363-ws

Timers On : Tue Feb 22 15:09:15 2022
Timers Off: Tue Feb 22 15:09:16 2022

Wall Time:        0.22 seconds

                                                       Time (seconds)
Module                                       User      System        Wall        Calls

--------------------------------------------------------------------------------------

**************************************************************************************

Host: smg13363-ws

Timers On : Tue Feb 22 15:09:50 2022
Timers Off: Tue Feb 22 15:09:51 2022

Wall Time:        0.23 seconds

                                                       Time (seconds)
Module                                       User      System        Wall        Calls

--------------------------------------------------------------------------------------

**************************************************************************************

Host: smg13363-ws

Timers On : Tue Feb 22 15:12:29 2022
Timers Off: Tue Feb 22 15:12:30 2022

Wall Time:        0.23 seconds

                                                       Time (seconds)
Module                                       User      System        Wall        Calls

--------------------------------------------------------------------------------------

**************************************************************************************

Host: smg13363-ws

Timers On : Tue Feb 22 15:36:41 2022
Timers Off: Tue Feb 22 15:36:41 2022

Wall Time:        0.23 seconds

                                                       Time (seconds)
Module                                       User      System        Wall        Calls

--------------------------------------------------------------------------------------

**************************************************************************************

Host: smg13363-ws

Timers On : Tue Feb 22 15:36:56 2022
Timers Off: Tue Feb 22 15:36:56 2022

Wall Time:        0.23 seconds

                                                       Time (seconds)
Module                                       User      System        Wall        Calls

--------------------------------------------------------------------------------------

**************************************************************************************

Host: smg13363-ws

Timers On : Tue Feb 22 15:38:12 2022
Timers Off: Tue Feb 22 15:38:13 2022

Wall Time:        0.23 seconds

                                                       Time (seconds)
Module                                       User      System        Wall        Calls

--------------------------------------------------------------------------------------

**************************************************************************************

Host: smg13363-ws

Timers On : Tue Feb 22 15:39:28 2022
Timers Off: Tue Feb 22 15:39:28 2022

Wall Time:        0.23 seconds

                                                       Time (seconds)
Module                                       User      System        Wall        Calls

--------------------------------------------------------------------------------------

**************************************************************************************

Host: smg13363-ws

Timers On : Tue Feb 22 15:40:21 2022
Timers Off: Tue Feb 22 15:40:21 2022

Wall Time:        0.23 seconds

                                                       Time (seconds)
Module                                       User      System        Wall        Calls

--------------------------------------------------------------------------------------

**************************************************************************************

Host: smg13363-ws

Timers On : Tue Feb 22 15:45:43 2022
Timers Off: Tue Feb 22 15:45:44 2022

Wall Time:        0.23 seconds

                                                       Time (seconds)
Module                                       User      System        Wall        Calls

--------------------------------------------------------------------------------------

**************************************************************************************

Host: smg13363-ws

Timers On : Tue Feb 22 15:48:34 2022
Timers Off: Tue Feb 22 15:48:35 2022

Wall Time:        0.22 seconds

                                                       Time (seconds)
Module                                       User      System        Wall        Calls

--------------------------------------------------------------------------------------

**************************************************************************************

Host: smg13363-ws

Timers On : Tue Feb 22 15:51:28 2022
Timers Off: Tue Feb 22 15:51:28 2022

Wall Time:        0.23 seconds

                                                       Time (seconds)
Module                                       User      System        Wall        Calls

--------------------------------------------------------------------------------------

**************************************************************************************

Host: smg13363-ws

Timers On : Tue Feb 22 15:51:37 2022
Timers Off: Tue Feb 22 15:51:37 2022

Wall Time:        0.23 seconds

                                                       Time (seconds)
Module                                       User      System        Wall        Calls

--------------------------------------------------------------------------------------

**************************************************************************************

Host: smg13363-ws

Timers On : Tue Feb 22 15:52:24 2022
Timers Off: Tue Feb 22 15:52:25 2022

Wall Time:        0.23 seconds

                                                       Time (seconds)
Module                                       User      System        Wall        Calls

--------------------------------------------------------------------------------------

**************************************************************************************

Host: smg13363-ws

Timers On : Tue Feb 22 15:52:55 2022
Timers Off: Tue Feb 22 15:52:55 2022

Wall Time:        0.23 seconds

                                                       Time (seconds)
Module                                       User      System        Wall        Calls

--------------------------------------------------------------------------------------

**************************************************************************************

Host: smg13363-ws

Timers On : Tue Feb 22 15:53:38 2022
Timers Off: Tue Feb 22 15:53:39 2022

Wall Time:        0.23 seconds

                                                       Time (seconds)
Module                                       User      System        Wall        Calls

--------------------------------------------------------------------------------------

**************************************************************************************

Host: smg13363-ws

Timers On : Tue Feb 22 15:54:24 2022
Timers Off: Tue Feb 22 15:54:25 2022

Wall Time:        0.22 seconds

                                                       Time (seconds)
Module                                       User      System        Wall        Calls

--------------------------------------------------------------------------------------

**************************************************************************************

Host: smg13363-ws

Timers On : Tue Feb 22 15:54:46 2022
Timers Off: Tue Feb 22 15:54:46 2022

Wall Time:        0.23 seconds

                                                       Time (seconds)
Module                                       User      System        Wall        Calls

--------------------------------------------------------------------------------------

**************************************************************************************

Host: smg13363-ws

Timers On : Tue Feb 22 15:56:14 2022
Timers Off: Tue Feb 22 15:56:14 2022

Wall Time:        0.23 seconds

                                                       Time (seconds)
Module                                       User      System        Wall        Calls

--------------------------------------------------------------------------------------

**************************************************************************************

Host: smg13363-ws

Timers On : Tue Feb 22 15:56:52 2022
Timers Off: Tue Feb 22 15:56:53 2022

Wall Time:        0.24 seconds

                                                       Time (seconds)
Module                                       User      System        Wall        Calls

--------------------------------------------------------------------------------------

**************************************************************************************

Host: smg13363-ws

Timers On : Tue Feb 22 15:57:35 2022
Timers Off: Tue Feb 22 15:57:35 2022

Wall Time:        0.23 seconds

                                                       Time (seconds)
Module                                       User      System        Wall        Calls

--------------------------------------------------------------------------------------

**************************************************************************************

Host: smg13363-ws

Timers On : Tue Feb 22 15:58:33 2022
Timers Off: Tue Feb 22 15:58:33 2022

Wall Time:        0.23 seconds

                                                       Time (seconds)
Module                                       User      System        Wall        Calls

--------------------------------------------------------------------------------------

**************************************************************************************

Host: smg13363-ws

Timers On : Tue Feb 22 15:58:56 2022
Timers Off: Tue Feb 22 15:58:56 2022

Wall Time:        0.23 seconds

                                                       Time (seconds)
Module                                       User      System        Wall        Calls

--------------------------------------------------------------------------------------

**************************************************************************************

Host: smg13363-ws

Timers On : Tue Feb 22 15:59:14 2022
Timers Off: Tue Feb 22 15:59:14 2022

Wall Time:        0.23 seconds

                                                       Time (seconds)
Module                                       User      System        Wall        Calls

--------------------------------------------------------------------------------------

**************************************************************************************

Host: smg13363-ws

Timers On : Tue Feb 22 16:02:43 2022
Timers Off: Tue Feb 22 16:02:43 2022

Wall Time:        0.23 seconds

                                                       Time (seconds)
Module                                       User      System        Wall        Calls

--------------------------------------------------------------------------------------

**************************************************************************************

Host: smg13363-ws

Timers On : Tue Feb 22 16:02:51 2022
Timers Off: Tue Feb 22 16:02:51 2022

Wall Time:        0.24 seconds

                                                       Time (seconds)
Module                                       User      System        Wall        Calls

--------------------------------------------------------------------------------------

**************************************************************************************

Host: smg13363-ws

Timers On : Tue Feb 22 16:03:16 2022
Timers Off: Tue Feb 22 16:03:16 2022

Wall Time:        0.23 seconds

                                                       Time (seconds)
Module                                       User      System        Wall        Calls

--------------------------------------------------------------------------------------

**************************************************************************************

Host: smg13363-ws

Timers On : Tue Feb 22 16:03:30 2022
Timers Off: Tue Feb 22 16:03:30 2022

Wall Time:        0.23 seconds

                                                       Time (seconds)
Module                                       User      System        Wall        Calls

--------------------------------------------------------------------------------------

**************************************************************************************

Host: smg13363-ws

Timers On : Tue Feb 22 16:04:39 2022
Timers Off: Tue Feb 22 16:04:39 2022

Wall Time:        0.23 seconds

                                                       Time (seconds)
Module                                       User      System        Wall        Calls

--------------------------------------------------------------------------------------

**************************************************************************************

Host: smg13363-ws

Timers On : Tue Feb 22 16:05:05 2022
Timers Off: Tue Feb 22 16:05:05 2022

Wall Time:        0.23 seconds

                                                       Time (seconds)
Module                                       User      System        Wall        Calls

--------------------------------------------------------------------------------------

**************************************************************************************

Host: smg13363-ws

Timers On : Tue Feb 22 16:05:48 2022
Timers Off: Tue Feb 22 16:05:48 2022

Wall Time:        0.23 seconds

                                                       Time (seconds)
Module                                       User      System        Wall        Calls

--------------------------------------------------------------------------------------

**************************************************************************************

Host: smg13363-ws

Timers On : Tue Feb 22 16:07:12 2022
Timers Off: Tue Feb 22 16:07:12 2022

Wall Time:        0.23 seconds

                                                       Time (seconds)
Module                                       User      System        Wall        Calls

--------------------------------------------------------------------------------------

**************************************************************************************

Host: smg13363-ws

Timers On : Tue Feb 22 16:11:32 2022
Timers Off: Tue Feb 22 16:11:32 2022

Wall Time:        0.24 seconds

                                                       Time (seconds)
Module                                       User      System        Wall        Calls

--------------------------------------------------------------------------------------

**************************************************************************************

Host: smg13363-ws

Timers On : Tue Feb 22 16:11:57 2022
Timers Off: Tue Feb 22 16:11:57 2022

Wall Time:        0.23 seconds

                                                       Time (seconds)
Module                                       User      System        Wall        Calls

--------------------------------------------------------------------------------------

**************************************************************************************

Host: smg13363-ws

Timers On : Tue Feb 22 16:12:54 2022
Timers Off: Tue Feb 22 16:12:55 2022

Wall Time:        0.23 seconds

                                                       Time (seconds)
Module                                       User      System        Wall        Calls

--------------------------------------------------------------------------------------

**************************************************************************************

Host: smg13363-ws

Timers On : Tue Feb 22 16:14:56 2022
Timers Off: Tue Feb 22 16:14:56 2022

Wall Time:        0.23 seconds

                                                       Time (seconds)
Module                                       User      System        Wall        Calls

--------------------------------------------------------------------------------------

**************************************************************************************

Host: smg13363-ws

Timers On : Tue Feb 22 16:16:16 2022
Timers Off: Tue Feb 22 16:16:16 2022

Wall Time:        0.23 seconds

                                                       Time (seconds)
Module                                       User      System        Wall        Calls

--------------------------------------------------------------------------------------

**************************************************************************************

Host: smg13363-ws

Timers On : Tue Feb 22 16:16:23 2022
Timers Off: Tue Feb 22 16:16:24 2022

Wall Time:        0.23 seconds

                                                       Time (seconds)
Module                                       User      System        Wall        Calls

--------------------------------------------------------------------------------------

**************************************************************************************

Host: smg13363-ws

Timers On : Tue Feb 22 16:17:15 2022
Timers Off: Tue Feb 22 16:17:16 2022

Wall Time:        0.23 seconds

                                                       Time (seconds)
Module                                       User      System        Wall        Calls

--------------------------------------------------------------------------------------

**************************************************************************************

Host: smg13363-ws

Timers On : Tue Feb 22 16:17:30 2022
Timers Off: Tue Feb 22 16:17:31 2022

Wall Time:        0.23 seconds

                                                       Time (seconds)
Module                                       User      System        Wall        Calls

--------------------------------------------------------------------------------------

**************************************************************************************

Host: smg13363-ws

Timers On : Tue Feb 22 16:17:53 2022
Timers Off: Tue Feb 22 16:17:53 2022

Wall Time:        0.23 seconds

                                                       Time (seconds)
Module                                       User      System        Wall        Calls

--------------------------------------------------------------------------------------

**************************************************************************************

Host: smg13363-ws

Timers On : Tue Feb 22 16:18:23 2022
Timers Off: Tue Feb 22 16:18:23 2022

Wall Time:        0.23 seconds

                                                       Time (seconds)
Module                                       User      System        Wall        Calls

--------------------------------------------------------------------------------------

**************************************************************************************

Host: smg13363-ws

Timers On : Tue Feb 22 16:18:56 2022
Timers Off: Tue Feb 22 16:18:56 2022

Wall Time:        0.23 seconds

                                                       Time (seconds)
Module                                       User      System        Wall        Calls

--------------------------------------------------------------------------------------

**************************************************************************************

Host: smg13363-ws

Timers On : Tue Feb 22 16:19:22 2022
Timers Off: Tue Feb 22 16:19:22 2022

Wall Time:        0.22 seconds

                                                       Time (seconds)
Module                                       User      System        Wall        Calls

--------------------------------------------------------------------------------------

**************************************************************************************

Host: smg13363-ws

Timers On : Tue Feb 22 16:19:32 2022
Timers Off: Tue Feb 22 16:19:33 2022

Wall Time:        0.23 seconds

                                                       Time (seconds)
Module                                       User      System        Wall        Calls

--------------------------------------------------------------------------------------

**************************************************************************************

Host: smg13363-ws

Timers On : Tue Feb 22 16:19:41 2022
Timers Off: Tue Feb 22 16:19:41 2022

Wall Time:        0.23 seconds

                                                       Time (seconds)
Module                                       User      System        Wall        Calls

--------------------------------------------------------------------------------------

**************************************************************************************

Host: smg13363-ws

Timers On : Tue Feb 22 16:20:18 2022
Timers Off: Tue Feb 22 16:20:19 2022

Wall Time:        0.23 seconds

                                                       Time (seconds)
Module                                       User      System        Wall        Calls

--------------------------------------------------------------------------------------

**************************************************************************************

Host: smg13363-ws

Timers On : Tue Feb 22 16:20:39 2022
Timers Off: Tue Feb 22 16:20:40 2022

Wall Time:        0.50 seconds

                                                       Time (seconds)
Module                                       User      System        Wall        Calls
Libint2ERI::Libint2ERI              :      0.000u      0.000s      0.001w      1 calls

--------------------------------------------------------------------------------------
Libint2ERI::Libint2ERI              :      0.000u      0.000s      0.001w      1 calls

**************************************************************************************

Host: smg13363-ws

Timers On : Tue Feb 22 16:21:25 2022
Timers Off: Tue Feb 22 16:21:26 2022

Wall Time:        0.51 seconds

                                                       Time (seconds)
Module                                       User      System        Wall        Calls
Libint2ERI::Libint2ERI              :      0.000u      0.000s      0.000w      1 calls

--------------------------------------------------------------------------------------
Libint2ERI::Libint2ERI              :      0.000u      0.000s      0.000w      1 calls

**************************************************************************************

Host: smg13363-ws

Timers On : Tue Feb 22 16:21:27 2022
Timers Off: Tue Feb 22 16:21:27 2022

Wall Time:        0.51 seconds

                                                       Time (seconds)
Module                                       User      System        Wall        Calls
Libint2ERI::Libint2ERI              :      0.000u      0.000s      0.000w      1 calls

--------------------------------------------------------------------------------------
Libint2ERI::Libint2ERI              :      0.000u      0.000s      0.000w      1 calls

**************************************************************************************

Host: smg13363-ws

Timers On : Tue Feb 22 16:22:24 2022
Timers Off: Tue Feb 22 16:22:25 2022

Wall Time:        0.51 seconds

                                                       Time (seconds)
Module                                       User      System        Wall        Calls
Libint2ERI::Libint2ERI              :      0.000u      0.000s      0.000w      1 calls

--------------------------------------------------------------------------------------
Libint2ERI::Libint2ERI              :      0.000u      0.000s      0.000w      1 calls

**************************************************************************************

Host: smg13363-ws

Timers On : Tue Feb 22 16:23:48 2022
Timers Off: Tue Feb 22 16:23:49 2022

Wall Time:        0.38 seconds

                                                       Time (seconds)
Module                                       User      System        Wall        Calls
Libint2ERI::Libint2ERI              :      0.000u      0.000s      0.001w      1 calls

--------------------------------------------------------------------------------------
Libint2ERI::Libint2ERI              :      0.000u      0.000s      0.001w      1 calls

**************************************************************************************

Host: smg13363-ws

Timers On : Tue Feb 22 16:23:59 2022
Timers Off: Tue Feb 22 16:23:59 2022

Wall Time:        0.41 seconds

                                                       Time (seconds)
Module                                       User      System        Wall        Calls
Libint2ERI::Libint2ERI              :      0.000u      0.000s      0.000w      1 calls

--------------------------------------------------------------------------------------
Libint2ERI::Libint2ERI              :      0.000u      0.000s      0.000w      1 calls

**************************************************************************************

Host: smg13363-ws

Timers On : Tue Feb 22 16:24:24 2022
Timers Off: Tue Feb 22 16:24:25 2022

Wall Time:        0.51 seconds

                                                       Time (seconds)
Module                                       User      System        Wall        Calls
Libint2ERI::Libint2ERI              :      0.000u      0.000s      0.000w      1 calls

--------------------------------------------------------------------------------------
Libint2ERI::Libint2ERI              :      0.000u      0.000s      0.000w      1 calls

**************************************************************************************

Host: smg13363-ws

Timers On : Tue Feb 22 16:25:21 2022
Timers Off: Tue Feb 22 16:25:22 2022

Wall Time:        0.51 seconds

                                                       Time (seconds)
Module                                       User      System        Wall        Calls
Libint2ERI::Libint2ERI              :      0.000u      0.000s      0.000w      1 calls

--------------------------------------------------------------------------------------
Libint2ERI::Libint2ERI              :      0.000u      0.000s      0.000w      1 calls

**************************************************************************************

Host: smg13363-ws

Timers On : Tue Feb 22 16:25:46 2022
Timers Off: Tue Feb 22 16:25:46 2022

Wall Time:        0.50 seconds

                                                       Time (seconds)
Module                                       User      System        Wall        Calls
Libint2ERI::Libint2ERI              :      0.000u      0.000s      0.000w      1 calls

--------------------------------------------------------------------------------------
Libint2ERI::Libint2ERI              :      0.000u      0.000s      0.000w      1 calls

**************************************************************************************

Host: smg13363-ws

Timers On : Wed Feb 23 08:54:03 2022
Timers Off: Wed Feb 23 08:54:04 2022

Wall Time:        0.51 seconds

                                                       Time (seconds)
Module                                       User      System        Wall        Calls
Libint2ERI::Libint2ERI              :      0.000u      0.000s      0.000w      1 calls

--------------------------------------------------------------------------------------
Libint2ERI::Libint2ERI              :      0.000u      0.000s      0.000w      1 calls

**************************************************************************************

Host: smg13363-ws

Timers On : Wed Feb 23 08:54:15 2022
Timers Off: Wed Feb 23 08:54:16 2022

Wall Time:        0.51 seconds

                                                       Time (seconds)
Module                                       User      System        Wall        Calls
Libint2ERI::Libint2ERI              :      0.000u      0.000s      0.000w      1 calls

--------------------------------------------------------------------------------------
Libint2ERI::Libint2ERI              :      0.000u      0.000s      0.000w      1 calls

**************************************************************************************

Host: smg13363-ws

Timers On : Wed Feb 23 08:55:26 2022
Timers Off: Wed Feb 23 08:55:26 2022

Wall Time:        0.52 seconds

                                                       Time (seconds)
Module                                       User      System        Wall        Calls
Libint2ERI::Libint2ERI              :      0.000u      0.000s      0.000w      1 calls

--------------------------------------------------------------------------------------
Libint2ERI::Libint2ERI              :      0.000u      0.000s      0.000w      1 calls

**************************************************************************************

Host: smg13363-ws

Timers On : Wed Feb 23 08:57:13 2022
Timers Off: Wed Feb 23 08:57:14 2022

Wall Time:        0.52 seconds

                                                       Time (seconds)
Module                                       User      System        Wall        Calls
Libint2ERI::Libint2ERI              :      0.000u      0.000s      0.000w      1 calls

--------------------------------------------------------------------------------------
Libint2ERI::Libint2ERI              :      0.000u      0.000s      0.000w      1 calls

**************************************************************************************

Host: smg13363-ws

Timers On : Wed Feb 23 08:59:11 2022
Timers Off: Wed Feb 23 08:59:12 2022

Wall Time:        0.52 seconds

                                                       Time (seconds)
Module                                       User      System        Wall        Calls
Libint2ERI::Libint2ERI              :      0.000u      0.000s      0.001w      1 calls

--------------------------------------------------------------------------------------
Libint2ERI::Libint2ERI              :      0.000u      0.000s      0.001w      1 calls

**************************************************************************************

Host: smg13363-ws

Timers On : Wed Feb 23 08:59:34 2022
Timers Off: Wed Feb 23 08:59:35 2022

Wall Time:        0.54 seconds

                                                       Time (seconds)
Module                                       User      System        Wall        Calls
Libint2ERI::Libint2ERI              :      0.000u      0.000s      0.001w      1 calls

--------------------------------------------------------------------------------------
Libint2ERI::Libint2ERI              :      0.000u      0.000s      0.001w      1 calls

**************************************************************************************

Host: smg13363-ws

Timers On : Wed Feb 23 09:56:05 2022
Timers Off: Wed Feb 23 09:56:05 2022

Wall Time:        0.56 seconds

                                                       Time (seconds)
Module                                       User      System        Wall        Calls
Libint2ERI::Libint2ERI              :      0.000u      0.000s      0.001w      1 calls

--------------------------------------------------------------------------------------
Libint2ERI::Libint2ERI              :      0.000u      0.000s      0.001w      1 calls

**************************************************************************************

Host: smg13363-ws

Timers On : Wed Feb 23 09:57:48 2022
Timers Off: Wed Feb 23 09:57:48 2022

Wall Time:        0.53 seconds

                                                       Time (seconds)
Module                                       User      System        Wall        Calls
Libint2ERI::Libint2ERI              :      0.000u      0.017s      0.000w      1 calls

--------------------------------------------------------------------------------------
Libint2ERI::Libint2ERI              :      0.000u      0.017s      0.000w      1 calls

**************************************************************************************

Host: smg13363-ws

Timers On : Wed Feb 23 09:58:27 2022
Timers Off: Wed Feb 23 09:58:27 2022

Wall Time:        0.54 seconds

                                                       Time (seconds)
Module                                       User      System        Wall        Calls
Libint2ERI::Libint2ERI              :      0.000u      0.000s      0.000w      1 calls

--------------------------------------------------------------------------------------
Libint2ERI::Libint2ERI              :      0.000u      0.000s      0.000w      1 calls

**************************************************************************************

Host: smg13363-ws

Timers On : Wed Feb 23 09:58:45 2022
Timers Off: Wed Feb 23 09:58:46 2022

Wall Time:        0.53 seconds

                                                       Time (seconds)
Module                                       User      System        Wall        Calls
Libint2ERI::Libint2ERI              :      0.000u      0.000s      0.000w      1 calls

--------------------------------------------------------------------------------------
Libint2ERI::Libint2ERI              :      0.000u      0.000s      0.000w      1 calls

**************************************************************************************

Host: smg13363-ws

Timers On : Wed Feb 23 09:59:00 2022
Timers Off: Wed Feb 23 09:59:01 2022

Wall Time:        0.54 seconds

                                                       Time (seconds)
Module                                       User      System        Wall        Calls
Libint2ERI::Libint2ERI              :      0.000u      0.000s      0.000w      1 calls

--------------------------------------------------------------------------------------
Libint2ERI::Libint2ERI              :      0.000u      0.000s      0.000w      1 calls

**************************************************************************************

Host: smg13363-ws

Timers On : Wed Feb 23 10:23:30 2022
Timers Off: Wed Feb 23 10:23:30 2022

Wall Time:        0.54 seconds

                                                       Time (seconds)
Module                                       User      System        Wall        Calls
Libint2ERI::Libint2ERI              :      0.000u      0.000s      0.000w      1 calls

--------------------------------------------------------------------------------------
Libint2ERI::Libint2ERI              :      0.000u      0.000s      0.000w      1 calls

**************************************************************************************

Host: smg13363-ws

Timers On : Wed Feb 23 10:23:44 2022
Timers Off: Wed Feb 23 10:23:45 2022

Wall Time:        0.53 seconds

                                                       Time (seconds)
Module                                       User      System        Wall        Calls
Libint2ERI::Libint2ERI              :      0.000u      0.000s      0.000w      1 calls

--------------------------------------------------------------------------------------
Libint2ERI::Libint2ERI              :      0.000u      0.000s      0.000w      1 calls

**************************************************************************************

Host: smg13363-ws

Timers On : Wed Feb 23 10:23:56 2022
Timers Off: Wed Feb 23 10:23:56 2022

Wall Time:        0.52 seconds

                                                       Time (seconds)
Module                                       User      System        Wall        Calls
Libint2ERI::Libint2ERI              :      0.000u      0.000s      0.000w      1 calls

--------------------------------------------------------------------------------------
Libint2ERI::Libint2ERI              :      0.000u      0.000s      0.000w      1 calls

**************************************************************************************

Host: smg13363-ws

Timers On : Wed Feb 23 10:24:57 2022
Timers Off: Wed Feb 23 10:24:58 2022

Wall Time:        0.40 seconds

                                                       Time (seconds)
Module                                       User      System        Wall        Calls
Libint2ERI::Libint2ERI              :      0.000u      0.000s      0.004w      1 calls

--------------------------------------------------------------------------------------
Libint2ERI::Libint2ERI              :      0.000u      0.000s      0.004w      1 calls

**************************************************************************************

Host: smg13363-ws

Timers On : Wed Feb 23 10:26:11 2022
Timers Off: Wed Feb 23 10:26:11 2022

Wall Time:        0.39 seconds

                                                       Time (seconds)
Module                                       User      System        Wall        Calls
Libint2ERI::Libint2ERI              :      0.000u      0.000s      0.004w      1 calls

--------------------------------------------------------------------------------------
Libint2ERI::Libint2ERI              :      0.000u      0.000s      0.004w      1 calls

**************************************************************************************

Host: smg13363-ws

Timers On : Wed Feb 23 10:26:27 2022
Timers Off: Wed Feb 23 10:26:27 2022

Wall Time:        0.39 seconds

                                                       Time (seconds)
Module                                       User      System        Wall        Calls
Libint2ERI::Libint2ERI              :      0.000u      0.000s      0.004w      1 calls

--------------------------------------------------------------------------------------
Libint2ERI::Libint2ERI              :      0.000u      0.000s      0.004w      1 calls

**************************************************************************************

Host: smg13363-ws

Timers On : Wed Feb 23 10:27:10 2022
Timers Off: Wed Feb 23 10:27:10 2022

Wall Time:        0.39 seconds

                                                       Time (seconds)
Module                                       User      System        Wall        Calls
Libint2ERI::Libint2ERI              :      0.000u      0.000s      0.004w      1 calls

--------------------------------------------------------------------------------------
Libint2ERI::Libint2ERI              :      0.000u      0.000s      0.004w      1 calls

**************************************************************************************

Host: smg13363-ws

Timers On : Wed Feb 23 10:27:36 2022
Timers Off: Wed Feb 23 10:27:37 2022

Wall Time:        0.42 seconds

                                                       Time (seconds)
Module                                       User      System        Wall        Calls
Libint2ERI::Libint2ERI              :      0.000u      0.000s      0.004w      1 calls

--------------------------------------------------------------------------------------
Libint2ERI::Libint2ERI              :      0.000u      0.000s      0.004w      1 calls

**************************************************************************************

Host: smg13363-ws

Timers On : Wed Feb 23 10:28:50 2022
Timers Off: Wed Feb 23 10:28:51 2022

Wall Time:        0.39 seconds

                                                       Time (seconds)
Module                                       User      System        Wall        Calls
Libint2ERI::Libint2ERI              :      0.017u      0.000s      0.004w      1 calls

--------------------------------------------------------------------------------------
Libint2ERI::Libint2ERI              :      0.017u      0.000s      0.004w      1 calls

**************************************************************************************

Host: smg13363-ws

Timers On : Wed Feb 23 10:29:05 2022
Timers Off: Wed Feb 23 10:29:06 2022

Wall Time:        0.40 seconds

                                                       Time (seconds)
Module                                       User      System        Wall        Calls
Libint2ERI::Libint2ERI              :      0.017u      0.000s      0.004w      1 calls

--------------------------------------------------------------------------------------
Libint2ERI::Libint2ERI              :      0.017u      0.000s      0.004w      1 calls

**************************************************************************************

Host: smg13363-ws

Timers On : Wed Feb 23 10:30:57 2022
Timers Off: Wed Feb 23 10:30:57 2022

Wall Time:        0.39 seconds

                                                       Time (seconds)
Module                                       User      System        Wall        Calls
Libint2ERI::Libint2ERI              :      0.000u      0.000s      0.004w      1 calls

--------------------------------------------------------------------------------------
Libint2ERI::Libint2ERI              :      0.000u      0.000s      0.004w      1 calls

**************************************************************************************

Host: smg13363-ws

Timers On : Wed Feb 23 10:32:43 2022
Timers Off: Wed Feb 23 10:32:43 2022

Wall Time:        0.39 seconds

                                                       Time (seconds)
Module                                       User      System        Wall        Calls
Libint2ERI::Libint2ERI              :      0.000u      0.000s      0.004w      1 calls

--------------------------------------------------------------------------------------
Libint2ERI::Libint2ERI              :      0.000u      0.000s      0.004w      1 calls

**************************************************************************************

Host: smg13363-ws

Timers On : Wed Feb 23 10:38:03 2022
Timers Off: Wed Feb 23 10:38:04 2022

Wall Time:        0.39 seconds

                                                       Time (seconds)
Module                                       User      System        Wall        Calls
Libint2ERI::Libint2ERI              :      0.000u      0.000s      0.004w      1 calls

--------------------------------------------------------------------------------------
Libint2ERI::Libint2ERI              :      0.000u      0.000s      0.004w      1 calls

**************************************************************************************

Host: smg13363-ws

Timers On : Wed Feb 23 10:40:18 2022
Timers Off: Wed Feb 23 10:40:19 2022

Wall Time:        0.39 seconds

                                                       Time (seconds)
Module                                       User      System        Wall        Calls
Libint2ERI::Libint2ERI              :      0.000u      0.000s      0.004w      1 calls

--------------------------------------------------------------------------------------
Libint2ERI::Libint2ERI              :      0.000u      0.000s      0.004w      1 calls

**************************************************************************************

Host: smg13363-ws

Timers On : Wed Feb 23 10:40:57 2022
Timers Off: Wed Feb 23 10:40:58 2022

Wall Time:        0.39 seconds

                                                       Time (seconds)
Module                                       User      System        Wall        Calls
Libint2ERI::Libint2ERI              :      0.000u      0.000s      0.004w      1 calls

--------------------------------------------------------------------------------------
Libint2ERI::Libint2ERI              :      0.000u      0.000s      0.004w      1 calls

**************************************************************************************

Host: smg13363-ws

Timers On : Wed Feb 23 10:42:32 2022
Timers Off: Wed Feb 23 10:42:32 2022

Wall Time:        0.39 seconds

                                                       Time (seconds)
Module                                       User      System        Wall        Calls
Libint2ERI::Libint2ERI              :      0.000u      0.000s      0.004w      1 calls

--------------------------------------------------------------------------------------
Libint2ERI::Libint2ERI              :      0.000u      0.000s      0.004w      1 calls

**************************************************************************************

Host: smg13363-ws

Timers On : Wed Feb 23 10:43:19 2022
Timers Off: Wed Feb 23 10:43:20 2022

Wall Time:        0.40 seconds

                                                       Time (seconds)
Module                                       User      System        Wall        Calls
Libint2ERI::Libint2ERI              :      0.017u      0.000s      0.004w      1 calls

--------------------------------------------------------------------------------------
Libint2ERI::Libint2ERI              :      0.017u      0.000s      0.004w      1 calls

**************************************************************************************

Host: smg13363-ws

Timers On : Wed Feb 23 10:44:05 2022
Timers Off: Wed Feb 23 10:44:06 2022

Wall Time:        0.40 seconds

                                                       Time (seconds)
Module                                       User      System        Wall        Calls
Libint2ERI::Libint2ERI              :      0.000u      0.000s      0.004w      1 calls

--------------------------------------------------------------------------------------
Libint2ERI::Libint2ERI              :      0.000u      0.000s      0.004w      1 calls

**************************************************************************************

Host: smg13363-ws

Timers On : Wed Feb 23 10:45:10 2022
Timers Off: Wed Feb 23 10:45:10 2022

Wall Time:        0.40 seconds

                                                       Time (seconds)
Module                                       User      System        Wall        Calls
Libint2ERI::Libint2ERI              :      0.000u      0.000s      0.004w      1 calls

--------------------------------------------------------------------------------------
Libint2ERI::Libint2ERI              :      0.000u      0.000s      0.004w      1 calls

**************************************************************************************

Host: smg13363-ws

Timers On : Wed Feb 23 10:47:22 2022
Timers Off: Wed Feb 23 10:47:22 2022

Wall Time:        0.40 seconds

                                                       Time (seconds)
Module                                       User      System        Wall        Calls
Libint2ERI::Libint2ERI              :      0.000u      0.000s      0.004w      1 calls

--------------------------------------------------------------------------------------
Libint2ERI::Libint2ERI              :      0.000u      0.000s      0.004w      1 calls

**************************************************************************************

Host: smg13363-ws

Timers On : Wed Feb 23 10:48:02 2022
Timers Off: Wed Feb 23 10:48:02 2022

Wall Time:        0.40 seconds

                                                       Time (seconds)
Module                                       User      System        Wall        Calls
Libint2ERI::Libint2ERI              :      0.000u      0.000s      0.004w      1 calls

--------------------------------------------------------------------------------------
Libint2ERI::Libint2ERI              :      0.000u      0.000s      0.004w      1 calls

**************************************************************************************

Host: smg13363-ws

Timers On : Wed Feb 23 10:49:17 2022
Timers Off: Wed Feb 23 10:49:18 2022

Wall Time:        0.33 seconds

                                                       Time (seconds)
Module                                       User      System        Wall        Calls

--------------------------------------------------------------------------------------

**************************************************************************************

Host: smg13363-ws

Timers On : Wed Feb 23 10:49:26 2022
Timers Off: Wed Feb 23 10:49:26 2022

Wall Time:        0.34 seconds

                                                       Time (seconds)
Module                                       User      System        Wall        Calls

--------------------------------------------------------------------------------------

**************************************************************************************

Host: smg13363-ws

Timers On : Wed Feb 23 10:49:40 2022
Timers Off: Wed Feb 23 10:49:40 2022

Wall Time:        0.34 seconds

                                                       Time (seconds)
Module                                       User      System        Wall        Calls

--------------------------------------------------------------------------------------

**************************************************************************************

Host: smg13363-ws

Timers On : Wed Feb 23 10:50:07 2022
Timers Off: Wed Feb 23 10:50:07 2022

Wall Time:        0.40 seconds

                                                       Time (seconds)
Module                                       User      System        Wall        Calls
Libint2ERI::Libint2ERI              :      0.000u      0.017s      0.004w      1 calls

--------------------------------------------------------------------------------------
Libint2ERI::Libint2ERI              :      0.000u      0.017s      0.004w      1 calls

**************************************************************************************

Host: smg13363-ws

Timers On : Wed Feb 23 10:52:43 2022
Timers Off: Wed Feb 23 10:52:44 2022

Wall Time:        0.40 seconds

                                                       Time (seconds)
Module                                       User      System        Wall        Calls
Libint2ERI::Libint2ERI              :      0.000u      0.000s      0.004w      1 calls

--------------------------------------------------------------------------------------
Libint2ERI::Libint2ERI              :      0.000u      0.000s      0.004w      1 calls

**************************************************************************************

Host: smg13363-ws

Timers On : Wed Feb 23 10:53:05 2022
Timers Off: Wed Feb 23 10:53:06 2022

Wall Time:        0.47 seconds

                                                       Time (seconds)
Module                                       User      System        Wall        Calls
Libint2ERI::Libint2ERI              :      0.000u      0.000s      0.004w      1 calls

--------------------------------------------------------------------------------------
Libint2ERI::Libint2ERI              :      0.000u      0.000s      0.004w      1 calls

**************************************************************************************

Host: smg13363-ws

Timers On : Wed Feb 23 10:53:19 2022
Timers Off: Wed Feb 23 10:53:19 2022

Wall Time:        0.40 seconds

                                                       Time (seconds)
Module                                       User      System        Wall        Calls
Libint2ERI::Libint2ERI              :      0.017u      0.000s      0.004w      1 calls

--------------------------------------------------------------------------------------
Libint2ERI::Libint2ERI              :      0.017u      0.000s      0.004w      1 calls

**************************************************************************************

Host: smg13363-ws

Timers On : Wed Feb 23 10:54:06 2022
Timers Off: Wed Feb 23 10:54:06 2022

Wall Time:        0.33 seconds

                                                       Time (seconds)
Module                                       User      System        Wall        Calls

--------------------------------------------------------------------------------------

**************************************************************************************

Host: smg13363-ws

Timers On : Wed Feb 23 10:55:16 2022
Timers Off: Wed Feb 23 10:55:16 2022

Wall Time:        0.34 seconds

                                                       Time (seconds)
Module                                       User      System        Wall        Calls

--------------------------------------------------------------------------------------

**************************************************************************************

Host: smg13363-ws

Timers On : Wed Feb 23 11:16:10 2022
Timers Off: Wed Feb 23 11:16:15 2022

Wall Time:        5.00 seconds

                                                       Time (seconds)
Module                                       User      System        Wall        Calls
Libint2ERI::Libint2ERI              :      0.000u      0.000s      0.000w      1 calls

--------------------------------------------------------------------------------------
Libint2ERI::Libint2ERI              :      0.000u      0.000s      0.000w      1 calls

**************************************************************************************

Host: smg13363-ws

Timers On : Wed Feb 23 11:16:48 2022
Timers Off: Wed Feb 23 11:16:52 2022

Wall Time:        4.92 seconds

                                                       Time (seconds)
Module                                       User      System        Wall        Calls
Libint2ERI::Libint2ERI              :      0.000u      0.000s      0.000w      1 calls

--------------------------------------------------------------------------------------
Libint2ERI::Libint2ERI              :      0.000u      0.000s      0.000w      1 calls

**************************************************************************************

Host: smg13363-ws

Timers On : Wed Feb 23 11:17:00 2022
Timers Off: Wed Feb 23 11:17:05 2022

Wall Time:        4.93 seconds

                                                       Time (seconds)
Module                                       User      System        Wall        Calls
Libint2ERI::Libint2ERI              :      0.000u      0.000s      0.000w      1 calls

--------------------------------------------------------------------------------------
Libint2ERI::Libint2ERI              :      0.000u      0.000s      0.000w      1 calls

**************************************************************************************

Host: smg13363-ws

Timers On : Wed Feb 23 11:17:19 2022
Timers Off: Wed Feb 23 11:17:24 2022

Wall Time:        4.92 seconds

                                                       Time (seconds)
Module                                       User      System        Wall        Calls
Libint2ERI::Libint2ERI              :      0.000u      0.000s      0.000w      1 calls

--------------------------------------------------------------------------------------
Libint2ERI::Libint2ERI              :      0.000u      0.000s      0.000w      1 calls

**************************************************************************************

Host: smg13363-ws

Timers On : Wed Feb 23 11:17:45 2022
Timers Off: Wed Feb 23 11:17:50 2022

Wall Time:        4.93 seconds

                                                       Time (seconds)
Module                                       User      System        Wall        Calls
Libint2ERI::Libint2ERI              :      0.000u      0.000s      0.000w      1 calls

--------------------------------------------------------------------------------------
Libint2ERI::Libint2ERI              :      0.000u      0.000s      0.000w      1 calls

**************************************************************************************

Host: smg13363-ws

Timers On : Wed Feb 23 11:18:09 2022
Timers Off: Wed Feb 23 11:18:14 2022

Wall Time:        4.94 seconds

                                                       Time (seconds)
Module                                       User      System        Wall        Calls
Libint2ERI::Libint2ERI              :      0.000u      0.000s      0.000w      1 calls

--------------------------------------------------------------------------------------
Libint2ERI::Libint2ERI              :      0.000u      0.000s      0.000w      1 calls

**************************************************************************************

Host: smg13363-ws

Timers On : Wed Feb 23 11:19:45 2022
Timers Off: Wed Feb 23 11:19:50 2022

Wall Time:        4.92 seconds

                                                       Time (seconds)
Module                                       User      System        Wall        Calls
Libint2ERI::Libint2ERI              :      0.000u      0.000s      0.000w      1 calls

--------------------------------------------------------------------------------------
Libint2ERI::Libint2ERI              :      0.000u      0.000s      0.000w      1 calls

**************************************************************************************

Host: smg13363-ws

Timers On : Wed Feb 23 11:20:48 2022
Timers Off: Wed Feb 23 11:20:53 2022

Wall Time:        5.14 seconds

                                                       Time (seconds)
Module                                       User      System        Wall        Calls
Total PK formation time             :      0.000u      0.000s      0.004w      1 calls
Libint2ERI::Libint2ERI              :      0.000u      0.000s      0.001w      3 calls
HF: Form core H                     :      0.017u      0.000s      0.000w      1 calls
HF: Form S/X                        :      0.000u      0.000s      0.001w      1 calls
HF: Guess                           :      0.000u      0.000s      0.001w      1 calls
HF: Form G                          :      0.000u      0.000s      0.000w      8 calls
JK: D                               :      0.000u      0.000s      0.000w      8 calls
JK: USO2AO                          :      0.000u      0.000s      0.000w      8 calls
JK: JK                              :      0.000u      0.000s      0.000w      8 calls
PK computes JK                      :      0.000u      0.000s      0.000w      8 calls
JK: AO2USO                          :      0.000u      0.000s      0.000w      8 calls
HF: Form F                          :      0.000u      0.000s      0.000w      8 calls
HF: DIIS                            :      0.000u      0.000s      0.004w      8 calls
DIISManager::add_entry              :      0.000u      0.000s      0.000w      8 calls
DIISManager::extrapolate            :      0.000u      0.000s      0.001w      8 calls
bMatrix setup                       :      0.000u      0.000s      0.000w      8 calls
bMatrix pseudoinverse               :      0.000u      0.000s      0.000w      8 calls
New vector                          :      0.000u      0.000s      0.000w      8 calls
HF: Form C                          :      0.000u      0.000s      0.002w      8 calls
HF: Form D                          :      0.000u      0.000s      0.000w      8 calls

--------------------------------------------------------------------------------------
Total PK formation time             :      0.000u      0.000s      0.004w      1 calls
| Libint2ERI::Libint2ERI            :      0.000u      0.000s      0.001w      2 calls
HF: Form core H                     :      0.017u      0.000s      0.000w      1 calls
HF: Form S/X                        :      0.000u      0.000s      0.001w      1 calls
HF: Guess                           :      0.000u      0.000s      0.001w      1 calls
HF: Form G                          :      0.000u      0.000s      0.000w      8 calls
| JK: D                             :      0.000u      0.000s      0.000w      8 calls
| JK: USO2AO                        :      0.000u      0.000s      0.000w      8 calls
| JK: JK                            :      0.000u      0.000s      0.000w      8 calls
| | PK computes JK                  :      0.000u      0.000s      0.000w      8 calls
| JK: AO2USO                        :      0.000u      0.000s      0.000w      8 calls
HF: Form F                          :      0.000u      0.000s      0.000w      8 calls
HF: DIIS                            :      0.000u      0.000s      0.004w      8 calls
| DIISManager::add_entry            :      0.000u      0.000s      0.000w      8 calls
| DIISManager::extrapolate          :      0.000u      0.000s      0.001w      8 calls
| | bMatrix setup                   :      0.000u      0.000s      0.000w      8 calls
| | bMatrix pseudoinverse           :      0.000u      0.000s      0.000w      8 calls
| | New vector                      :      0.000u      0.000s      0.000w      8 calls
HF: Form C                          :      0.000u      0.000s      0.002w      8 calls
HF: Form D                          :      0.000u      0.000s      0.000w      8 calls
Libint2ERI::Libint2ERI              :      0.000u      0.000s      0.000w      1 calls

**************************************************************************************

Host: smg13363-ws

Timers On : Wed Feb 23 11:21:05 2022
Timers Off: Wed Feb 23 11:21:10 2022

Wall Time:        4.99 seconds

                                                       Time (seconds)
Module                                       User      System        Wall        Calls
Total PK formation time             :      0.000u      0.000s      0.004w      1 calls
Libint2ERI::Libint2ERI              :      0.000u      0.000s      0.001w      3 calls
HF: Form core H                     :      0.000u      0.000s      0.001w      1 calls
HF: Form S/X                        :      0.000u      0.000s      0.000w      1 calls
HF: Guess                           :      0.000u      0.000s      0.001w      1 calls
HF: Form G                          :      0.000u      0.000s      0.000w      8 calls
JK: D                               :      0.000u      0.000s      0.000w      8 calls
JK: USO2AO                          :      0.000u      0.000s      0.000w      8 calls
JK: JK                              :      0.000u      0.000s      0.000w      8 calls
PK computes JK                      :      0.000u      0.000s      0.000w      8 calls
JK: AO2USO                          :      0.000u      0.000s      0.000w      8 calls
HF: Form F                          :      0.000u      0.000s      0.000w      8 calls
HF: DIIS                            :      0.000u      0.000s      0.005w      8 calls
DIISManager::add_entry              :      0.000u      0.000s      0.000w      8 calls
DIISManager::extrapolate            :      0.000u      0.000s      0.001w      8 calls
bMatrix setup                       :      0.000u      0.000s      0.000w      8 calls
bMatrix pseudoinverse               :      0.000u      0.000s      0.000w      8 calls
New vector                          :      0.000u      0.000s      0.000w      8 calls
HF: Form C                          :      0.000u      0.000s      0.002w      8 calls
HF: Form D                          :      0.000u      0.000s      0.000w      8 calls

--------------------------------------------------------------------------------------
Total PK formation time             :      0.000u      0.000s      0.004w      1 calls
| Libint2ERI::Libint2ERI            :      0.000u      0.000s      0.001w      2 calls
HF: Form core H                     :      0.000u      0.000s      0.001w      1 calls
HF: Form S/X                        :      0.000u      0.000s      0.000w      1 calls
HF: Guess                           :      0.000u      0.000s      0.001w      1 calls
HF: Form G                          :      0.000u      0.000s      0.000w      8 calls
| JK: D                             :      0.000u      0.000s      0.000w      8 calls
| JK: USO2AO                        :      0.000u      0.000s      0.000w      8 calls
| JK: JK                            :      0.000u      0.000s      0.000w      8 calls
| | PK computes JK                  :      0.000u      0.000s      0.000w      8 calls
| JK: AO2USO                        :      0.000u      0.000s      0.000w      8 calls
HF: Form F                          :      0.000u      0.000s      0.000w      8 calls
HF: DIIS                            :      0.000u      0.000s      0.005w      8 calls
| DIISManager::add_entry            :      0.000u      0.000s      0.000w      8 calls
| DIISManager::extrapolate          :      0.000u      0.000s      0.001w      8 calls
| | bMatrix setup                   :      0.000u      0.000s      0.000w      8 calls
| | bMatrix pseudoinverse           :      0.000u      0.000s      0.000w      8 calls
| | New vector                      :      0.000u      0.000s      0.000w      8 calls
HF: Form C                          :      0.000u      0.000s      0.002w      8 calls
HF: Form D                          :      0.000u      0.000s      0.000w      8 calls
Libint2ERI::Libint2ERI              :      0.000u      0.000s      0.000w      1 calls

**************************************************************************************

Host: smg13363-ws

Timers On : Wed Feb 23 11:21:46 2022
Timers Off: Wed Feb 23 11:21:51 2022

Wall Time:        5.03 seconds

                                                       Time (seconds)
Module                                       User      System        Wall        Calls
Total PK formation time             :      0.017u      0.000s      0.004w      1 calls
Libint2ERI::Libint2ERI              :      0.000u      0.000s      0.001w      3 calls
HF: Form core H                     :      0.000u      0.000s      0.001w      1 calls
HF: Form S/X                        :      0.000u      0.000s      0.001w      1 calls
HF: Guess                           :      0.000u      0.000s      0.001w      1 calls
HF: Form G                          :      0.000u      0.000s      0.001w     11 calls
JK: D                               :      0.000u      0.000s      0.000w     11 calls
JK: USO2AO                          :      0.000u      0.000s      0.000w     11 calls
JK: JK                              :      0.000u      0.000s      0.000w     11 calls
PK computes JK                      :      0.000u      0.000s      0.000w     11 calls
JK: AO2USO                          :      0.000u      0.000s      0.000w     11 calls
HF: Form F                          :      0.000u      0.000s      0.000w     11 calls
HF: DIIS                            :      0.017u      0.000s      0.006w     11 calls
DIISManager::add_entry              :      0.000u      0.000s      0.000w     11 calls
DIISManager::extrapolate            :      0.000u      0.000s      0.001w     11 calls
bMatrix setup                       :      0.000u      0.000s      0.000w     11 calls
bMatrix pseudoinverse               :      0.000u      0.000s      0.000w     11 calls
New vector                          :      0.000u      0.000s      0.000w     11 calls
HF: Form C                          :      0.000u      0.000s      0.002w     11 calls
HF: Form D                          :      0.000u      0.000s      0.000w     11 calls

--------------------------------------------------------------------------------------
Total PK formation time             :      0.017u      0.000s      0.004w      1 calls
| Libint2ERI::Libint2ERI            :      0.000u      0.000s      0.000w      2 calls
HF: Form core H                     :      0.000u      0.000s      0.001w      1 calls
HF: Form S/X                        :      0.000u      0.000s      0.001w      1 calls
HF: Guess                           :      0.000u      0.000s      0.001w      1 calls
HF: Form G                          :      0.000u      0.000s      0.001w     11 calls
| JK: D                             :      0.000u      0.000s      0.000w     11 calls
| JK: USO2AO                        :      0.000u      0.000s      0.000w     11 calls
| JK: JK                            :      0.000u      0.000s      0.000w     11 calls
| | PK computes JK                  :      0.000u      0.000s      0.000w     11 calls
| JK: AO2USO                        :      0.000u      0.000s      0.000w     11 calls
HF: Form F                          :      0.000u      0.000s      0.000w     11 calls
HF: DIIS                            :      0.017u      0.000s      0.006w     11 calls
| DIISManager::add_entry            :      0.000u      0.000s      0.000w     11 calls
| DIISManager::extrapolate          :      0.000u      0.000s      0.001w     11 calls
| | bMatrix setup                   :      0.000u      0.000s      0.000w     11 calls
| | bMatrix pseudoinverse           :      0.000u      0.000s      0.000w     11 calls
| | New vector                      :      0.000u      0.000s      0.000w     11 calls
HF: Form C                          :      0.000u      0.000s      0.002w     11 calls
HF: Form D                          :      0.000u      0.000s      0.000w     11 calls
Libint2ERI::Libint2ERI              :      0.000u      0.000s      0.000w      1 calls

**************************************************************************************

Host: smg13363-ws

Timers On : Wed Feb 23 11:22:11 2022
Timers Off: Wed Feb 23 11:22:16 2022

Wall Time:        4.98 seconds

                                                       Time (seconds)
Module                                       User      System        Wall        Calls
Total PK formation time             :      0.017u      0.000s      0.004w      1 calls
Libint2ERI::Libint2ERI              :      0.000u      0.000s      0.001w      3 calls
HF: Form core H                     :      0.000u      0.000s      0.000w      1 calls
[...]
HF: Form D                          :      0.000u      0.000s      0.000w      8 calls

**************************************************************************************

Host: smg13363-ws

Timers On : Wed Jun 22 11:37:10 2022
Timers Off: Wed Jun 22 11:37:11 2022

Wall Time:        0.65 seconds

                                                       Time (seconds)
Module                                       User      System        Wall        Calls
Total PK formation time             :      0.033u      0.000s      0.020w      1 calls
HF: Form core H                     :      0.000u      0.000s      0.000w      1 calls
HF: Form S/X                        :      0.000u      0.000s      0.000w      1 calls
HF: Guess                           :      0.000u      0.000s      0.000w      1 calls
HF: Form G                          :      0.000u      0.000s      0.000w      8 calls
JK: D                               :      0.000u      0.000s      0.000w      8 calls
JK: USO2AO                          :      0.000u      0.000s      0.000w      8 calls
JK: JK                              :      0.000u      0.000s      0.000w      8 calls
PK computes JK                      :      0.000u      0.000s      0.000w      8 calls
JK: AO2USO                          :      0.000u      0.000s      0.000w      8 calls
HF: Form F                          :      0.000u      0.000s      0.000w      8 calls
HF: DIIS                            :      0.017u      0.000s      0.002w      8 calls
DIISManager::add_entry              :      0.017u      0.000s      0.000w      8 calls
DIISManager::extrapolate            :      0.000u      0.000s      0.000w      8 calls
bMatrix setup                       :      0.000u      0.000s      0.000w      8 calls
bMatrix pseudoinverse               :      0.000u      0.000s      0.000w      8 calls
New vector                          :      0.000u      0.000s      0.000w      8 calls
HF: Form C                          :      0.000u      0.000s      0.000w      8 calls
HF: Form D                          :      0.000u      0.000s      0.000w      8 calls

--------------------------------------------------------------------------------------
Total PK formation time             :      0.033u      0.000s      0.020w      1 calls
HF: Form core H                     :      0.000u      0.000s      0.000w      1 calls
HF: Form S/X                        :      0.000u      0.000s      0.000w      1 calls
HF: Guess                           :      0.000u      0.000s      0.000w      1 calls
HF: Form G                          :      0.000u      0.000s      0.000w      8 calls
| JK: D                             :      0.000u      0.000s      0.000w      8 calls
| JK: USO2AO                        :      0.000u      0.000s      0.000w      8 calls
| JK: JK                            :      0.000u      0.000s      0.000w      8 calls
| | PK computes JK                  :      0.000u      0.000s      0.000w      8 calls
| JK: AO2USO                        :      0.000u      0.000s      0.000w      8 calls
HF: Form F                          :      0.000u      0.000s      0.000w      8 calls
HF: DIIS                            :      0.017u      0.000s      0.002w      8 calls
| DIISManager::add_entry            :      0.017u      0.000s      0.000w      8 calls
| DIISManager::extrapolate          :      0.000u      0.000s      0.000w      8 calls
| | bMatrix setup                   :      0.000u      0.000s      0.000w      8 calls
| | bMatrix pseudoinverse           :      0.000u      0.000s      0.000w      8 calls
| | New vector                      :      0.000u      0.000s      0.000w      8 calls
HF: Form C                          :      0.000u      0.000s      0.000w      8 calls
HF: Form D                          :      0.000u      0.000s      0.000w      8 calls

**************************************************************************************

Host: smg13363-ws

Timers On : Wed Jun 22 11:54:16 2022
Timers Off: Wed Jun 22 11:54:17 2022

Wall Time:        0.66 seconds

                                                       Time (seconds)
Module                                       User      System        Wall        Calls
Total PK formation time             :      0.033u      0.000s      0.021w      1 calls
HF: Form core H                     :      0.000u      0.000s      0.000w      1 calls
HF: Form S/X                        :      0.000u      0.000s      0.000w      1 calls
HF: Guess                           :      0.000u      0.000s      0.000w      1 calls
HF: Form G                          :      0.000u      0.000s      0.000w      8 calls
JK: D                               :      0.000u      0.000s      0.000w      8 calls
JK: USO2AO                          :      0.000u      0.000s      0.000w      8 calls
JK: JK                              :      0.000u      0.000s      0.000w      8 calls
PK computes JK                      :      0.000u      0.000s      0.000w      8 calls
JK: AO2USO                          :      0.000u      0.000s      0.000w      8 calls
HF: Form F                          :      0.000u      0.000s      0.000w      8 calls
HF: DIIS                            :      0.017u      0.000s      0.002w      8 calls
DIISManager::add_entry              :      0.000u      0.000s      0.000w      8 calls
DIISManager::extrapolate            :      0.017u      0.000s      0.000w      8 calls
bMatrix setup                       :      0.017u      0.000s      0.000w      8 calls
bMatrix pseudoinverse               :      0.000u      0.000s      0.000w      8 calls
New vector                          :      0.000u      0.000s      0.000w      8 calls
HF: Form C                          :      0.000u      0.000s      0.000w      8 calls
HF: Form D                          :      0.000u      0.000s      0.000w      8 calls

--------------------------------------------------------------------------------------
Total PK formation time             :      0.033u      0.000s      0.021w      1 calls
HF: Form core H                     :      0.000u      0.000s      0.000w      1 calls
HF: Form S/X                        :      0.000u      0.000s      0.000w      1 calls
HF: Guess                           :      0.000u      0.000s      0.000w      1 calls
HF: Form G                          :      0.000u      0.000s      0.000w      8 calls
| JK: D                             :      0.000u      0.000s      0.000w      8 calls
| JK: USO2AO                        :      0.000u      0.000s      0.000w      8 calls
| JK: JK                            :      0.000u      0.000s      0.000w      8 calls
| | PK computes JK                  :      0.000u      0.000s      0.000w      8 calls
| JK: AO2USO                        :      0.000u      0.000s      0.000w      8 calls
HF: Form F                          :      0.000u      0.000s      0.000w      8 calls
HF: DIIS                            :      0.017u      0.000s      0.002w      8 calls
| DIISManager::add_entry            :      0.000u      0.000s      0.000w      8 calls
| DIISManager::extrapolate          :      0.017u      0.000s      0.000w      8 calls
| | bMatrix setup                   :      0.017u      0.000s      0.000w      8 calls
| | bMatrix pseudoinverse           :      0.000u      0.000s      0.000w      8 calls
| | New vector                      :      0.000u      0.000s      0.000w      8 calls
HF: Form C                          :      0.000u      0.000s      0.000w      8 calls
HF: Form D                          :      0.000u      0.000s      0.000w      8 calls

**************************************************************************************

Host: smg13363-ws

Timers On : Wed Jun 22 11:54:55 2022
Timers Off: Wed Jun 22 11:54:56 2022

Wall Time:        0.68 seconds

                                                       Time (seconds)
Module                                       User      System        Wall        Calls
Total PK formation time             :      0.067u      0.000s      0.034w      1 calls
HF: Form core H                     :      0.000u      0.000s      0.000w      1 calls
HF: Form S/X                        :      0.000u      0.000s      0.000w      1 calls
HF: Guess                           :      0.000u      0.000s      0.000w      1 calls
HF: Form G                          :      0.000u      0.000s      0.000w      8 calls
JK: D                               :      0.000u      0.000s      0.000w      8 calls
JK: USO2AO                          :      0.000u      0.000s      0.000w      8 calls
JK: JK                              :      0.000u      0.000s      0.000w      8 calls
PK computes JK                      :      0.000u      0.000s      0.000w      8 calls
JK: AO2USO                          :      0.000u      0.000s      0.000w      8 calls
HF: Form F                          :      0.000u      0.000s      0.000w      8 calls
HF: DIIS                            :      0.000u      0.000s      0.002w      8 calls
DIISManager::add_entry              :      0.000u      0.000s      0.000w      8 calls
DIISManager::extrapolate            :      0.000u      0.000s      0.000w      8 calls
bMatrix setup                       :      0.000u      0.000s      0.000w      8 calls
bMatrix pseudoinverse               :      0.000u      0.000s      0.000w      8 calls
New vector                          :      0.000u      0.000s      0.000w      8 calls
HF: Form C                          :      0.000u      0.000s      0.000w      8 calls
HF: Form D                          :      0.000u      0.000s      0.000w      8 calls

--------------------------------------------------------------------------------------
Total PK formation time             :      0.067u      0.000s      0.034w      1 calls
HF: Form core H                     :      0.000u      0.000s      0.000w      1 calls
HF: Form S/X                        :      0.000u      0.000s      0.000w      1 calls
HF: Guess                           :      0.000u      0.000s      0.000w      1 calls
HF: Form G                          :      0.000u      0.000s      0.000w      8 calls
| JK: D                             :      0.000u      0.000s      0.000w      8 calls
| JK: USO2AO                        :      0.000u      0.000s      0.000w      8 calls
| JK: JK                            :      0.000u      0.000s      0.000w      8 calls
| | PK computes JK                  :      0.000u      0.000s      0.000w      8 calls
| JK: AO2USO                        :      0.000u      0.000s      0.000w      8 calls
HF: Form F                          :      0.000u      0.000s      0.000w      8 calls
HF: DIIS                            :      0.000u      0.000s      0.002w      8 calls
| DIISManager::add_entry            :      0.000u      0.000s      0.000w      8 calls
| DIISManager::extrapolate          :      0.000u      0.000s      0.000w      8 calls
| | bMatrix setup                   :      0.000u      0.000s      0.000w      8 calls
| | bMatrix pseudoinverse           :      0.000u      0.000s      0.000w      8 calls
| | New vector                      :      0.000u      0.000s      0.000w      8 calls
HF: Form C                          :      0.000u      0.000s      0.000w      8 calls
HF: Form D                          :      0.000u      0.000s      0.000w      8 calls

**************************************************************************************

Host: sgoodlett-Inspiron-3585

Timers On : Wed Dec 21 10:10:45 2022
Timers Off: Wed Dec 21 10:10:49 2022

Wall Time:        3.76 seconds

                                                       Time (seconds)
Module                                       User      System        Wall        Calls

--------------------------------------------------------------------------------------

**************************************************************************************

Host: sgoodlett-Inspiron-3585

Timers On : Wed Dec 21 10:11:00 2022
Timers Off: Wed Dec 21 10:11:39 2022

Wall Time:       39.58 seconds

                                                       Time (seconds)
Module                                       User      System        Wall        Calls

--------------------------------------------------------------------------------------

**************************************************************************************

Host: sgoodlett-Inspiron-3585

Timers On : Wed Dec 21 10:11:42 2022
Timers Off: Wed Dec 21 10:11:58 2022

Wall Time:       16.76 seconds

                                                       Time (seconds)
Module                                       User      System        Wall        Calls

--------------------------------------------------------------------------------------

**************************************************************************************

Host: sgoodlett-Inspiron-3585

Timers On : Wed Dec 21 10:12:25 2022
Timers Off: Wed Dec 21 10:19:53 2022

Wall Time:      447.89 seconds

                                                       Time (seconds)
Module                                       User      System        Wall        Calls

--------------------------------------------------------------------------------------

**************************************************************************************

Host: sgoodlett-Inspiron-3585

Timers On : Wed Dec 21 10:19:59 2022
Timers Off: Wed Dec 21 10:20:52 2022

Wall Time:       52.96 seconds

                                                       Time (seconds)
Module                                       User      System        Wall        Calls

--------------------------------------------------------------------------------------

**************************************************************************************

Host: sgoodlett-Inspiron-3585

Timers On : Wed Dec 21 10:20:56 2022
Timers Off: Wed Dec 21 10:22:33 2022

Wall Time:       97.44 seconds

                                                       Time (seconds)
Module                                       User      System        Wall        Calls

--------------------------------------------------------------------------------------

**************************************************************************************

Host: sgoodlett-Inspiron-3585

Timers On : Wed Dec 21 10:22:38 2022
Timers Off: Wed Dec 21 10:23:21 2022

Wall Time:       42.69 seconds

                                                       Time (seconds)
Module                                       User      System        Wall        Calls

--------------------------------------------------------------------------------------

**************************************************************************************

Host: sgoodlett-Inspiron-3585

Timers On : Wed Dec 21 10:23:28 2022
Timers Off: Wed Dec 21 10:24:20 2022

Wall Time:       52.15 seconds

                                                       Time (seconds)
Module                                       User      System        Wall        Calls

--------------------------------------------------------------------------------------

**************************************************************************************

Host: sgoodlett-Inspiron-3585

Timers On : Wed Dec 21 10:24:23 2022
Timers Off: Wed Dec 21 10:37:26 2022

Wall Time:      783.30 seconds

                                                       Time (seconds)
Module                                       User      System        Wall        Calls

--------------------------------------------------------------------------------------

**************************************************************************************

Host: sgoodlett-Inspiron-3585

Timers On : Wed Dec 21 10:37:29 2022
Timers Off: Wed Dec 21 10:38:24 2022

Wall Time:       54.59 seconds

                                                       Time (seconds)
Module                                       User      System        Wall        Calls

--------------------------------------------------------------------------------------

**************************************************************************************

Host: sgoodlett-Inspiron-3585

Timers On : Wed Dec 21 10:38:28 2022
Timers Off: Wed Dec 21 10:40:55 2022

Wall Time:      146.86 seconds

                                                       Time (seconds)
Module                                       User      System        Wall        Calls

--------------------------------------------------------------------------------------

**************************************************************************************

Host: sgoodlett-Inspiron-3585

Timers On : Wed Dec 21 10:40:58 2022
Timers Off: Wed Dec 21 10:42:14 2022

Wall Time:       76.08 seconds

                                                       Time (seconds)
Module                                       User      System        Wall        Calls

--------------------------------------------------------------------------------------

**************************************************************************************

Host: sgoodlett-Inspiron-3585

Timers On : Wed Dec 21 10:42:16 2022
Timers Off: Wed Dec 21 10:42:51 2022

Wall Time:       34.84 seconds

                                                       Time (seconds)
Module                                       User      System        Wall        Calls

--------------------------------------------------------------------------------------

**************************************************************************************

Host: sgoodlett-Inspiron-3585

Timers On : Wed Dec 21 10:42:57 2022
Timers Off: Wed Dec 21 10:46:30 2022

Wall Time:      212.92 seconds

                                                       Time (seconds)
Module                                       User      System        Wall        Calls

--------------------------------------------------------------------------------------

**************************************************************************************

Host: sgoodlett-Inspiron-3585

Timers On : Wed Dec 21 10:46:33 2022
Timers Off: Wed Dec 21 10:47:00 2022

Wall Time:       26.82 seconds

                                                       Time (seconds)
Module                                       User      System        Wall        Calls

--------------------------------------------------------------------------------------

**************************************************************************************

Host: sgoodlett-Inspiron-3585

Timers On : Wed Dec 21 10:47:03 2022
Timers Off: Wed Dec 21 10:47:21 2022

Wall Time:       18.12 seconds

                                                       Time (seconds)
Module                                       User      System        Wall        Calls

--------------------------------------------------------------------------------------

**************************************************************************************

Host: sgoodlett-Inspiron-3585

Timers On : Wed Dec 21 11:02:43 2022
Timers Off: Wed Dec 21 11:04:45 2022

Wall Time:      121.81 seconds

                                                       Time (seconds)
Module                                       User      System        Wall        Calls

--------------------------------------------------------------------------------------

**************************************************************************************

Host: sgoodlett-Inspiron-3585

Timers On : Wed Dec 21 11:04:56 2022
Timers Off: Wed Dec 21 11:12:11 2022

Wall Time:      435.07 seconds

                                                       Time (seconds)
Module                                       User      System        Wall        Calls

--------------------------------------------------------------------------------------

**************************************************************************************
