
Host: smg13363-ws

Timers On : Wed Jan  5 09:48:43 2022
Timers Off: Wed Jan  5 09:48:43 2022

Wall Time:        0.40 seconds

                                                       Time (seconds)
Module                                       User      System        Wall        Calls

--------------------------------------------------------------------------------------

**************************************************************************************

Host: smg13363-ws

Timers On : Wed Jan  5 09:49:03 2022
Timers Off: Wed Jan  5 09:49:03 2022

Wall Time:        0.21 seconds

                                                       Time (seconds)
Module                                       User      System        Wall        Calls

--------------------------------------------------------------------------------------

**************************************************************************************

Host: smg13363-ws

Timers On : Wed Jan  5 09:51:01 2022
Timers Off: Wed Jan  5 09:51:01 2022

Wall Time:        0.21 seconds

                                                       Time (seconds)
Module                                       User      System        Wall        Calls

--------------------------------------------------------------------------------------

**************************************************************************************

Host: smg13363-ws

Timers On : Wed Jan  5 09:53:05 2022
Timers Off: Wed Jan  5 09:53:06 2022

Wall Time:        0.21 seconds

                                                       Time (seconds)
Module                                       User      System        Wall        Calls

--------------------------------------------------------------------------------------

**************************************************************************************

Host: smg13363-ws

Timers On : Wed Jan  5 09:54:41 2022
Timers Off: Wed Jan  5 09:54:41 2022

Wall Time:        0.24 seconds

                                                       Time (seconds)
Module                                       User      System        Wall        Calls

--------------------------------------------------------------------------------------

**************************************************************************************

Host: smg13363-ws

Timers On : Wed Jan  5 09:55:30 2022
Timers Off: Wed Jan  5 09:55:30 2022

Wall Time:        0.23 seconds

                                                       Time (seconds)
Module                                       User      System        Wall        Calls

--------------------------------------------------------------------------------------

**************************************************************************************

Host: smg13363-ws

Timers On : Wed Jan  5 09:56:22 2022
Timers Off: Wed Jan  5 09:56:22 2022

Wall Time:        0.23 seconds

                                                       Time (seconds)
Module                                       User      System        Wall        Calls

--------------------------------------------------------------------------------------

**************************************************************************************

Host: smg13363-ws

Timers On : Wed Jan  5 09:56:56 2022
Timers Off: Wed Jan  5 09:56:56 2022

Wall Time:        0.23 seconds

                                                       Time (seconds)
Module                                       User      System        Wall        Calls

--------------------------------------------------------------------------------------

**************************************************************************************

Host: smg13363-ws

Timers On : Wed Jan  5 09:57:38 2022
Timers Off: Wed Jan  5 09:57:39 2022

Wall Time:        0.23 seconds

                                                       Time (seconds)
Module                                       User      System        Wall        Calls

--------------------------------------------------------------------------------------

**************************************************************************************

Host: smg13363-ws

Timers On : Wed Jan  5 09:59:32 2022
Timers Off: Wed Jan  5 09:59:32 2022

Wall Time:        0.25 seconds

                                                       Time (seconds)
Module                                       User      System        Wall        Calls

--------------------------------------------------------------------------------------

**************************************************************************************

Host: smg13363-ws

Timers On : Wed Jan  5 10:00:05 2022
Timers Off: Wed Jan  5 10:00:06 2022

Wall Time:        0.23 seconds

                                                       Time (seconds)
Module                                       User      System        Wall        Calls

--------------------------------------------------------------------------------------

**************************************************************************************

Host: smg13363-ws

Timers On : Wed Jan  5 10:00:46 2022
Timers Off: Wed Jan  5 10:00:46 2022

Wall Time:        0.23 seconds

                                                       Time (seconds)
Module                                       User      System        Wall        Calls

--------------------------------------------------------------------------------------

**************************************************************************************

Host: smg13363-ws

Timers On : Wed Jan  5 10:01:08 2022
Timers Off: Wed Jan  5 10:01:08 2022

Wall Time:        0.23 seconds

                                                       Time (seconds)
Module                                       User      System        Wall        Calls

--------------------------------------------------------------------------------------

**************************************************************************************

Host: smg13363-ws

Timers On : Wed Jan  5 10:03:06 2022
Timers Off: Wed Jan  5 10:03:06 2022

Wall Time:        0.24 seconds

                                                       Time (seconds)
Module                                       User      System        Wall        Calls

--------------------------------------------------------------------------------------

**************************************************************************************

Host: smg13363-ws

Timers On : Wed Jan  5 10:03:37 2022
Timers Off: Wed Jan  5 10:03:37 2022

Wall Time:        0.24 seconds

                                                       Time (seconds)
Module                                       User      System        Wall        Calls

--------------------------------------------------------------------------------------

**************************************************************************************

Host: smg13363-ws

Timers On : Wed Jan  5 10:04:24 2022
Timers Off: Wed Jan  5 10:04:24 2022

Wall Time:        0.24 seconds

                                                       Time (seconds)
Module                                       User      System        Wall        Calls

--------------------------------------------------------------------------------------

**************************************************************************************

Host: smg13363-ws

Timers On : Wed Jan  5 10:12:29 2022
Timers Off: Wed Jan  5 10:12:30 2022

Wall Time:        0.23 seconds

                                                       Time (seconds)
Module                                       User      System        Wall        Calls

--------------------------------------------------------------------------------------

**************************************************************************************

Host: smg13363-ws

Timers On : Wed Jan  5 10:12:51 2022
Timers Off: Wed Jan  5 10:12:51 2022

Wall Time:        0.23 seconds

                                                       Time (seconds)
Module                                       User      System        Wall        Calls

--------------------------------------------------------------------------------------

**************************************************************************************

Host: smg13363-ws

Timers On : Wed Jan  5 10:14:10 2022
Timers Off: Wed Jan  5 10:14:10 2022

Wall Time:        0.23 seconds

                                                       Time (seconds)
Module                                       User      System        Wall        Calls

--------------------------------------------------------------------------------------

**************************************************************************************

Host: smg13363-ws

Timers On : Wed Jan  5 10:15:07 2022
Timers Off: Wed Jan  5 10:15:07 2022

Wall Time:        0.26 seconds

                                                       Time (seconds)
Module                                       User      System        Wall        Calls

--------------------------------------------------------------------------------------

**************************************************************************************

Host: smg13363-ws

Timers On : Wed Jan  5 10:15:12 2022
Timers Off: Wed Jan  5 10:15:12 2022

Wall Time:        0.23 seconds

                                                       Time (seconds)
Module                                       User      System        Wall        Calls

--------------------------------------------------------------------------------------

**************************************************************************************

Host: smg13363-ws

Timers On : Wed Jan  5 10:20:49 2022
Timers Off: Wed Jan  5 10:20:49 2022

Wall Time:        0.23 seconds

                                                       Time (seconds)
Module                                       User      System        Wall        Calls

--------------------------------------------------------------------------------------

**************************************************************************************

Host: smg13363-ws

Timers On : Wed Jan  5 10:24:02 2022
Timers Off: Wed Jan  5 10:24:02 2022

Wall Time:        0.23 seconds

                                                       Time (seconds)
Module                                       User      System        Wall        Calls

--------------------------------------------------------------------------------------

**************************************************************************************

Host: smg13363-ws

Timers On : Wed Jan  5 10:24:32 2022
Timers Off: Wed Jan  5 10:24:32 2022

Wall Time:        0.23 seconds

                                                       Time (seconds)
Module                                       User      System        Wall        Calls

--------------------------------------------------------------------------------------

**************************************************************************************

Host: smg13363-ws

Timers On : Wed Jan  5 10:40:25 2022
Timers Off: Wed Jan  5 10:40:25 2022

Wall Time:        0.24 seconds

                                                       Time (seconds)
Module                                       User      System        Wall        Calls

--------------------------------------------------------------------------------------

**************************************************************************************

Host: smg13363-ws

Timers On : Wed Jan  5 10:41:09 2022
Timers Off: Wed Jan  5 10:41:10 2022

Wall Time:        0.24 seconds

                                                       Time (seconds)
Module                                       User      System        Wall        Calls

--------------------------------------------------------------------------------------

**************************************************************************************

Host: smg13363-ws

Timers On : Wed Jan  5 10:41:51 2022
Timers Off: Wed Jan  5 10:41:52 2022

Wall Time:        0.23 seconds

                                                       Time (seconds)
Module                                       User      System        Wall        Calls

--------------------------------------------------------------------------------------

**************************************************************************************

Host: smg13363-ws

Timers On : Wed Jan  5 10:45:47 2022
Timers Off: Wed Jan  5 10:45:47 2022

Wall Time:        0.24 seconds

                                                       Time (seconds)
Module                                       User      System        Wall        Calls

--------------------------------------------------------------------------------------

**************************************************************************************

Host: smg13363-ws

Timers On : Wed Jan  5 10:47:14 2022
Timers Off: Wed Jan  5 10:47:14 2022

Wall Time:        0.23 seconds

                                                       Time (seconds)
Module                                       User      System        Wall        Calls

--------------------------------------------------------------------------------------

**************************************************************************************

Host: smg13363-ws

Timers On : Wed Jan  5 10:47:32 2022
Timers Off: Wed Jan  5 10:47:33 2022

Wall Time:        0.24 seconds

                                                       Time (seconds)
Module                                       User      System        Wall        Calls

--------------------------------------------------------------------------------------

**************************************************************************************

Host: smg13363-ws

Timers On : Wed Jan  5 10:48:36 2022
Timers Off: Wed Jan  5 10:48:37 2022

Wall Time:        0.24 seconds

                                                       Time (seconds)
Module                                       User      System        Wall        Calls

--------------------------------------------------------------------------------------

**************************************************************************************

Host: smg13363-ws

Timers On : Wed Jan  5 10:48:59 2022
Timers Off: Wed Jan  5 10:48:59 2022

Wall Time:        0.24 seconds

                                                       Time (seconds)
Module                                       User      System        Wall        Calls

--------------------------------------------------------------------------------------

**************************************************************************************

Host: smg13363-ws

Timers On : Wed Jan  5 11:09:35 2022
Timers Off: Wed Jan  5 11:09:35 2022

Wall Time:        0.23 seconds

                                                       Time (seconds)
Module                                       User      System        Wall        Calls

--------------------------------------------------------------------------------------

**************************************************************************************

Host: smg13363-ws

Timers On : Wed Jan  5 11:09:46 2022
Timers Off: Wed Jan  5 11:09:46 2022

Wall Time:        0.24 seconds

                                                       Time (seconds)
Module                                       User      System        Wall        Calls

--------------------------------------------------------------------------------------

**************************************************************************************

Host: smg13363-ws

Timers On : Wed Jan  5 11:10:15 2022
Timers Off: Wed Jan  5 11:10:15 2022

Wall Time:        0.24 seconds

                                                       Time (seconds)
Module                                       User      System        Wall        Calls

--------------------------------------------------------------------------------------

**************************************************************************************

Host: smg13363-ws

Timers On : Wed Jan  5 11:10:32 2022
Timers Off: Wed Jan  5 11:10:32 2022

Wall Time:        0.24 seconds

                                                       Time (seconds)
Module                                       User      System        Wall        Calls

--------------------------------------------------------------------------------------

**************************************************************************************

Host: smg13363-ws

Timers On : Wed Jan  5 11:11:00 2022
Timers Off: Wed Jan  5 11:11:00 2022

Wall Time:        0.24 seconds

                                                       Time (seconds)
Module                                       User      System        Wall        Calls

--------------------------------------------------------------------------------------

**************************************************************************************

Host: smg13363-ws

Timers On : Wed Jan  5 11:11:10 2022
Timers Off: Wed Jan  5 11:11:10 2022

Wall Time:        0.24 seconds

                                                       Time (seconds)
Module                                       User      System        Wall        Calls

--------------------------------------------------------------------------------------

**************************************************************************************

Host: smg13363-ws

Timers On : Wed Jan  5 11:52:23 2022
Timers Off: Wed Jan  5 11:52:23 2022

Wall Time:        0.24 seconds

                                                       Time (seconds)
Module                                       User      System        Wall        Calls

--------------------------------------------------------------------------------------

**************************************************************************************

Host: smg13363-ws

Timers On : Wed Jan  5 11:54:17 2022
Timers Off: Wed Jan  5 11:54:18 2022

Wall Time:        0.24 seconds

                                                       Time (seconds)
Module                                       User      System        Wall        Calls

--------------------------------------------------------------------------------------

**************************************************************************************

Host: smg13363-ws

Timers On : Wed Jan  5 11:54:45 2022
Timers Off: Wed Jan  5 11:54:45 2022

Wall Time:        0.24 seconds

                                                       Time (seconds)
Module                                       User      System        Wall        Calls

--------------------------------------------------------------------------------------

**************************************************************************************

Host: smg13363-ws

Timers On : Wed Jan  5 12:02:50 2022
Timers Off: Wed Jan  5 12:02:50 2022

Wall Time:        0.24 seconds

                                                       Time (seconds)
Module                                       User      System        Wall        Calls

--------------------------------------------------------------------------------------

**************************************************************************************

Host: smg13363-ws

Timers On : Wed Jan  5 12:03:12 2022
Timers Off: Wed Jan  5 12:03:12 2022

Wall Time:        0.24 seconds

                                                       Time (seconds)
Module                                       User      System        Wall        Calls

--------------------------------------------------------------------------------------

**************************************************************************************

Host: smg13363-ws

Timers On : Wed Jan  5 12:05:23 2022
Timers Off: Wed Jan  5 12:05:24 2022

Wall Time:        0.24 seconds

                                                       Time (seconds)
Module                                       User      System        Wall        Calls

--------------------------------------------------------------------------------------

**************************************************************************************

Host: smg13363-ws

Timers On : Wed Jan  5 13:26:44 2022
Timers Off: Wed Jan  5 13:26:45 2022

Wall Time:        0.24 seconds

                                                       Time (seconds)
Module                                       User      System        Wall        Calls

--------------------------------------------------------------------------------------

**************************************************************************************

Host: smg13363-ws

Timers On : Wed Jan  5 13:26:53 2022
Timers Off: Wed Jan  5 13:26:53 2022

Wall Time:        0.24 seconds

                                                       Time (seconds)
Module                                       User      System        Wall        Calls

--------------------------------------------------------------------------------------

**************************************************************************************

Host: smg13363-ws

Timers On : Wed Jan  5 13:27:06 2022
Timers Off: Wed Jan  5 13:27:06 2022

Wall Time:        0.24 seconds

                                                       Time (seconds)
Module                                       User      System        Wall        Calls

--------------------------------------------------------------------------------------

**************************************************************************************

Host: smg13363-ws

Timers On : Wed Jan  5 13:27:13 2022
Timers Off: Wed Jan  5 13:27:13 2022

Wall Time:        0.24 seconds

                                                       Time (seconds)
Module                                       User      System        Wall        Calls

--------------------------------------------------------------------------------------

**************************************************************************************

Host: smg13363-ws

Timers On : Wed Jan  5 13:27:21 2022
Timers Off: Wed Jan  5 13:27:21 2022

Wall Time:        0.24 seconds

                                                       Time (seconds)
Module                                       User      System        Wall        Calls

--------------------------------------------------------------------------------------

**************************************************************************************

Host: smg13363-ws

Timers On : Wed Jan  5 13:37:41 2022
Timers Off: Wed Jan  5 13:37:41 2022

Wall Time:        0.24 seconds

                                                       Time (seconds)
Module                                       User      System        Wall        Calls

--------------------------------------------------------------------------------------

**************************************************************************************

Host: smg13363-ws

Timers On : Wed Jan  5 13:38:15 2022
Timers Off: Wed Jan  5 13:38:15 2022

Wall Time:        0.24 seconds

                                                       Time (seconds)
Module                                       User      System        Wall        Calls

--------------------------------------------------------------------------------------

**************************************************************************************

Host: smg13363-ws

Timers On : Wed Jan  5 13:38:25 2022
Timers Off: Wed Jan  5 13:38:25 2022

Wall Time:        0.24 seconds

                                                       Time (seconds)
Module                                       User      System        Wall        Calls

--------------------------------------------------------------------------------------

**************************************************************************************

Host: smg13363-ws

Timers On : Wed Jan  5 13:41:19 2022
Timers Off: Wed Jan  5 13:41:20 2022

Wall Time:        0.24 seconds

                                                       Time (seconds)
Module                                       User      System        Wall        Calls

--------------------------------------------------------------------------------------

**************************************************************************************

Host: smg13363-ws

Timers On : Wed Jan  5 13:46:46 2022
Timers Off: Wed Jan  5 13:46:46 2022

Wall Time:        0.23 seconds

                                                       Time (seconds)
Module                                       User      System        Wall        Calls

--------------------------------------------------------------------------------------

**************************************************************************************

Host: smg13363-ws

Timers On : Wed Jan  5 13:46:58 2022
Timers Off: Wed Jan  5 13:46:58 2022

Wall Time:        0.23 seconds

                                                       Time (seconds)
Module                                       User      System        Wall        Calls

--------------------------------------------------------------------------------------

**************************************************************************************

Host: smg13363-ws

Timers On : Wed Jan  5 13:47:28 2022
Timers Off: Wed Jan  5 13:47:28 2022

Wall Time:        0.24 seconds

                                                       Time (seconds)
Module                                       User      System        Wall        Calls

--------------------------------------------------------------------------------------

**************************************************************************************

Host: smg13363-ws

Timers On : Wed Jan  5 13:48:20 2022
Timers Off: Wed Jan  5 13:48:21 2022

Wall Time:        0.24 seconds

                                                       Time (seconds)
Module                                       User      System        Wall        Calls

--------------------------------------------------------------------------------------

**************************************************************************************

Host: smg13363-ws

Timers On : Wed Jan  5 13:48:37 2022
Timers Off: Wed Jan  5 13:48:37 2022

Wall Time:        0.24 seconds

                                                       Time (seconds)
Module                                       User      System        Wall        Calls

--------------------------------------------------------------------------------------

**************************************************************************************

Host: smg13363-ws

Timers On : Wed Jan  5 13:55:12 2022
Timers Off: Wed Jan  5 13:55:12 2022

Wall Time:        0.24 seconds

                                                       Time (seconds)
Module                                       User      System        Wall        Calls

--------------------------------------------------------------------------------------

**************************************************************************************

Host: smg13363-ws

Timers On : Wed Jan  5 13:55:53 2022
Timers Off: Wed Jan  5 13:55:54 2022

Wall Time:        0.24 seconds

                                                       Time (seconds)
Module                                       User      System        Wall        Calls

--------------------------------------------------------------------------------------

**************************************************************************************

Host: smg13363-ws

Timers On : Wed Jan  5 14:04:07 2022
Timers Off: Wed Jan  5 14:04:07 2022

Wall Time:        0.24 seconds

                                                       Time (seconds)
Module                                       User      System        Wall        Calls

--------------------------------------------------------------------------------------

**************************************************************************************

Host: smg13363-ws

Timers On : Wed Jan  5 14:07:16 2022
Timers Off: Wed Jan  5 14:07:16 2022

Wall Time:        0.24 seconds

                                                       Time (seconds)
Module                                       User      System        Wall        Calls

--------------------------------------------------------------------------------------

**************************************************************************************

Host: smg13363-ws

Timers On : Wed Jan  5 14:09:17 2022
Timers Off: Wed Jan  5 14:09:17 2022

Wall Time:        0.24 seconds

                                                       Time (seconds)
Module                                       User      System        Wall        Calls

--------------------------------------------------------------------------------------

**************************************************************************************

Host: smg13363-ws

Timers On : Wed Jan  5 14:16:11 2022
Timers Off: Wed Jan  5 14:16:11 2022

Wall Time:        0.24 seconds

                                                       Time (seconds)
Module                                       User      System        Wall        Calls

--------------------------------------------------------------------------------------

**************************************************************************************

Host: smg13363-ws

Timers On : Wed Jan  5 14:16:53 2022
Timers Off: Wed Jan  5 14:16:53 2022

Wall Time:        0.24 seconds

                                                       Time (seconds)
Module                                       User      System        Wall        Calls

--------------------------------------------------------------------------------------

**************************************************************************************

Host: smg13363-ws

Timers On : Wed Jan  5 14:19:25 2022
Timers Off: Wed Jan  5 14:19:25 2022

Wall Time:        0.24 seconds

                                                       Time (seconds)
Module                                       User      System        Wall        Calls

--------------------------------------------------------------------------------------

**************************************************************************************

Host: smg13363-ws

Timers On : Wed Jan  5 14:19:49 2022
Timers Off: Wed Jan  5 14:19:49 2022

Wall Time:        0.24 seconds

                                                       Time (seconds)
Module                                       User      System        Wall        Calls

--------------------------------------------------------------------------------------

**************************************************************************************

Host: smg13363-ws

Timers On : Wed Jan  5 14:21:13 2022
Timers Off: Wed Jan  5 14:21:13 2022

Wall Time:        0.24 seconds

                                                       Time (seconds)
Module                                       User      System        Wall        Calls

--------------------------------------------------------------------------------------

**************************************************************************************

Host: smg13363-ws

Timers On : Wed Jan  5 14:22:21 2022
Timers Off: Wed Jan  5 14:22:21 2022

Wall Time:        0.24 seconds

                                                       Time (seconds)
Module                                       User      System        Wall        Calls

--------------------------------------------------------------------------------------

**************************************************************************************

Host: smg13363-ws

Timers On : Wed Jan  5 14:22:28 2022
Timers Off: Wed Jan  5 14:22:28 2022

Wall Time:        0.24 seconds

                                                       Time (seconds)
Module                                       User      System        Wall        Calls

--------------------------------------------------------------------------------------

**************************************************************************************

Host: smg13363-ws

Timers On : Wed Jan  5 14:22:43 2022
Timers Off: Wed Jan  5 14:22:44 2022

Wall Time:        0.24 seconds

                                                       Time (seconds)
Module                                       User      System        Wall        Calls

--------------------------------------------------------------------------------------

**************************************************************************************

Host: smg13363-ws

Timers On : Wed Jan  5 14:23:04 2022
Timers Off: Wed Jan  5 14:23:04 2022

Wall Time:        0.24 seconds

                                                       Time (seconds)
Module                                       User      System        Wall        Calls

--------------------------------------------------------------------------------------

**************************************************************************************

Host: smg13363-ws

Timers On : Wed Jan  5 14:23:09 2022
Timers Off: Wed Jan  5 14:23:10 2022

Wall Time:        0.24 seconds

                                                       Time (seconds)
Module                                       User      System        Wall        Calls

--------------------------------------------------------------------------------------

**************************************************************************************

Host: smg13363-ws

Timers On : Wed Jan  5 14:54:57 2022
Timers Off: Wed Jan  5 14:54:58 2022

Wall Time:        0.24 seconds

                                                       Time (seconds)
Module                                       User      System        Wall        Calls

--------------------------------------------------------------------------------------

**************************************************************************************

Host: smg13363-ws

Timers On : Thu Jan  6 10:28:04 2022
Timers Off: Thu Jan  6 10:28:04 2022

Wall Time:        0.26 seconds

                                                       Time (seconds)
Module                                       User      System        Wall        Calls

--------------------------------------------------------------------------------------

**************************************************************************************

Host: smg13363-ws

Timers On : Thu Jan  6 10:29:06 2022
Timers Off: Thu Jan  6 10:29:06 2022

Wall Time:        0.24 seconds

                                                       Time (seconds)
Module                                       User      System        Wall        Calls

--------------------------------------------------------------------------------------

**************************************************************************************

Host: smg13363-ws

Timers On : Thu Jan  6 10:33:08 2022
Timers Off: Thu Jan  6 10:33:08 2022

Wall Time:        0.24 seconds

                                                       Time (seconds)
Module                                       User      System        Wall        Calls

--------------------------------------------------------------------------------------

**************************************************************************************

Host: smg13363-ws

Timers On : Thu Jan  6 10:33:29 2022
Timers Off: Thu Jan  6 10:33:29 2022

Wall Time:        0.24 seconds

                                                       Time (seconds)
Module                                       User      System        Wall        Calls

--------------------------------------------------------------------------------------

**************************************************************************************

Host: smg13363-ws

Timers On : Thu Jan  6 10:34:25 2022
Timers Off: Thu Jan  6 10:34:26 2022

Wall Time:        0.23 seconds

                                                       Time (seconds)
Module                                       User      System        Wall        Calls

--------------------------------------------------------------------------------------

**************************************************************************************

Host: smg13363-ws

Timers On : Thu Jan  6 10:42:48 2022
Timers Off: Thu Jan  6 10:42:48 2022

Wall Time:        0.24 seconds

                                                       Time (seconds)
Module                                       User      System        Wall        Calls

--------------------------------------------------------------------------------------

**************************************************************************************

Host: smg13363-ws

Timers On : Thu Jan  6 10:43:59 2022
Timers Off: Thu Jan  6 10:43:59 2022

Wall Time:        0.24 seconds

                                                       Time (seconds)
Module                                       User      System        Wall        Calls

--------------------------------------------------------------------------------------

**************************************************************************************

Host: smg13363-ws

Timers On : Thu Jan  6 10:44:10 2022
Timers Off: Thu Jan  6 10:44:10 2022

Wall Time:        0.24 seconds

                                                       Time (seconds)
Module                                       User      System        Wall        Calls

--------------------------------------------------------------------------------------

**************************************************************************************

Host: smg13363-ws

Timers On : Thu Jan  6 10:44:22 2022
Timers Off: Thu Jan  6 10:44:23 2022

Wall Time:        0.24 seconds

                                                       Time (seconds)
Module                                       User      System        Wall        Calls

--------------------------------------------------------------------------------------

**************************************************************************************

Host: smg13363-ws

Timers On : Thu Jan  6 10:55:00 2022
Timers Off: Thu Jan  6 10:55:00 2022

Wall Time:        0.24 seconds

                                                       Time (seconds)
Module                                       User      System        Wall        Calls

--------------------------------------------------------------------------------------

**************************************************************************************

Host: smg13363-ws

Timers On : Thu Jan  6 11:02:42 2022
Timers Off: Thu Jan  6 11:02:42 2022

Wall Time:        0.24 seconds

                                                       Time (seconds)
Module                                       User      System        Wall        Calls

--------------------------------------------------------------------------------------

**************************************************************************************

Host: smg13363-ws

Timers On : Thu Jan  6 11:04:10 2022
Timers Off: Thu Jan  6 11:04:10 2022

Wall Time:        0.24 seconds

                                                       Time (seconds)
Module                                       User      System        Wall        Calls

--------------------------------------------------------------------------------------

**************************************************************************************

Host: smg13363-ws

Timers On : Thu Jan  6 11:09:05 2022
Timers Off: Thu Jan  6 11:09:05 2022

Wall Time:        0.17 seconds

                                                       Time (seconds)
Module                                       User      System        Wall        Calls

--------------------------------------------------------------------------------------

**************************************************************************************

Host: smg13363-ws

Timers On : Thu Jan  6 11:16:28 2022
Timers Off: Thu Jan  6 11:16:29 2022

Wall Time:        0.18 seconds

                                                       Time (seconds)
Module                                       User      System        Wall        Calls

--------------------------------------------------------------------------------------

**************************************************************************************

Host: smg13363-ws

Timers On : Thu Jan  6 11:17:30 2022
Timers Off: Thu Jan  6 11:17:30 2022

Wall Time:        0.18 seconds

                                                       Time (seconds)
Module                                       User      System        Wall        Calls

--------------------------------------------------------------------------------------

**************************************************************************************

Host: smg13363-ws

Timers On : Thu Jan  6 11:41:34 2022
Timers Off: Thu Jan  6 11:41:35 2022

Wall Time:        0.18 seconds

                                                       Time (seconds)
Module                                       User      System        Wall        Calls

--------------------------------------------------------------------------------------

**************************************************************************************

Host: smg13363-ws

Timers On : Thu Jan  6 11:41:45 2022
Timers Off: Thu Jan  6 11:41:45 2022

Wall Time:        0.18 seconds

                                                       Time (seconds)
Module                                       User      System        Wall        Calls

--------------------------------------------------------------------------------------

**************************************************************************************

Host: smg13363-ws

Timers On : Thu Jan  6 11:42:15 2022
Timers Off: Thu Jan  6 11:42:15 2022

Wall Time:        0.18 seconds

                                                       Time (seconds)
Module                                       User      System        Wall        Calls

--------------------------------------------------------------------------------------

**************************************************************************************

Host: smg13363-ws

Timers On : Thu Jan  6 13:16:46 2022
Timers Off: Thu Jan  6 13:16:46 2022

Wall Time:        0.17 seconds

                                                       Time (seconds)
Module                                       User      System        Wall        Calls

--------------------------------------------------------------------------------------

**************************************************************************************

Host: smg13363-ws

Timers On : Thu Jan  6 13:17:30 2022
Timers Off: Thu Jan  6 13:17:30 2022

Wall Time:        0.17 seconds

                                                       Time (seconds)
Module                                       User      System        Wall        Calls

--------------------------------------------------------------------------------------

**************************************************************************************

Host: smg13363-ws

Timers On : Thu Jan  6 13:18:12 2022
Timers Off: Thu Jan  6 13:18:12 2022

Wall Time:        0.17 seconds

                                                       Time (seconds)
Module                                       User      System        Wall        Calls

--------------------------------------------------------------------------------------

**************************************************************************************

Host: smg13363-ws

Timers On : Thu Jan  6 13:21:19 2022
Timers Off: Thu Jan  6 13:21:19 2022

Wall Time:        0.18 seconds

                                                       Time (seconds)
Module                                       User      System        Wall        Calls

--------------------------------------------------------------------------------------

**************************************************************************************

Host: smg13363-ws

Timers On : Thu Jan  6 13:25:32 2022
Timers Off: Thu Jan  6 13:25:32 2022

Wall Time:        0.18 seconds

                                                       Time (seconds)
Module                                       User      System        Wall        Calls

--------------------------------------------------------------------------------------

**************************************************************************************

Host: smg13363-ws

Timers On : Thu Jan  6 13:25:43 2022
Timers Off: Thu Jan  6 13:25:43 2022

Wall Time:        0.17 seconds

                                                       Time (seconds)
Module                                       User      System        Wall        Calls

--------------------------------------------------------------------------------------

**************************************************************************************

Host: smg13363-ws

Timers On : Thu Jan  6 13:26:12 2022
Timers Off: Thu Jan  6 13:26:13 2022

Wall Time:        0.18 seconds

                                                       Time (seconds)
Module                                       User      System        Wall        Calls

--------------------------------------------------------------------------------------

**************************************************************************************

Host: smg13363-ws

Timers On : Thu Jan  6 13:26:46 2022
Timers Off: Thu Jan  6 13:26:47 2022

Wall Time:        0.18 seconds

                                                       Time (seconds)
Module                                       User      System        Wall        Calls

--------------------------------------------------------------------------------------

**************************************************************************************

Host: smg13363-ws

Timers On : Thu Jan  6 13:28:23 2022
Timers Off: Thu Jan  6 13:28:23 2022

Wall Time:        0.18 seconds

                                                       Time (seconds)
Module                                       User      System        Wall        Calls

--------------------------------------------------------------------------------------

**************************************************************************************

Host: smg13363-ws

Timers On : Thu Jan  6 13:28:54 2022
Timers Off: Thu Jan  6 13:28:55 2022

Wall Time:        0.18 seconds

                                                       Time (seconds)
Module                                       User      System        Wall        Calls

--------------------------------------------------------------------------------------

**************************************************************************************

Host: smg13363-ws

Timers On : Thu Jan  6 13:29:53 2022
Timers Off: Thu Jan  6 13:29:54 2022

Wall Time:        0.19 seconds

                                                       Time (seconds)
Module                                       User      System        Wall        Calls

--------------------------------------------------------------------------------------

**************************************************************************************

Host: smg13363-ws

Timers On : Thu Jan  6 13:31:02 2022
Timers Off: Thu Jan  6 13:31:03 2022

Wall Time:        0.18 seconds

                                                       Time (seconds)
Module                                       User      System        Wall        Calls

--------------------------------------------------------------------------------------

**************************************************************************************

Host: smg13363-ws

Timers On : Thu Jan  6 13:31:15 2022
Timers Off: Thu Jan  6 13:31:15 2022

Wall Time:        0.18 seconds

                                                       Time (seconds)
Module                                       User      System        Wall        Calls

--------------------------------------------------------------------------------------

**************************************************************************************

Host: smg13363-ws

Timers On : Thu Jan  6 13:32:34 2022
Timers Off: Thu Jan  6 13:32:35 2022

Wall Time:        0.18 seconds

                                                       Time (seconds)
Module                                       User      System        Wall        Calls

--------------------------------------------------------------------------------------

**************************************************************************************

Host: smg13363-ws

Timers On : Thu Jan  6 13:33:18 2022
Timers Off: Thu Jan  6 13:33:18 2022

Wall Time:        0.18 seconds

                                                       Time (seconds)
Module                                       User      System        Wall        Calls

--------------------------------------------------------------------------------------

**************************************************************************************

Host: smg13363-ws

Timers On : Thu Jan  6 13:33:49 2022
Timers Off: Thu Jan  6 13:33:49 2022

Wall Time:        0.18 seconds

                                                       Time (seconds)
Module                                       User      System        Wall        Calls

--------------------------------------------------------------------------------------

**************************************************************************************

Host: smg13363-ws

Timers On : Thu Jan  6 13:34:08 2022
Timers Off: Thu Jan  6 13:34:08 2022

Wall Time:        0.18 seconds

                                                       Time (seconds)
Module                                       User      System        Wall        Calls

--------------------------------------------------------------------------------------

**************************************************************************************

Host: smg13363-ws

Timers On : Thu Jan  6 13:34:39 2022
Timers Off: Thu Jan  6 13:34:40 2022

Wall Time:        0.18 seconds

                                                       Time (seconds)
Module                                       User      System        Wall        Calls

--------------------------------------------------------------------------------------

**************************************************************************************

Host: smg13363-ws

Timers On : Thu Jan  6 13:37:40 2022
Timers Off: Thu Jan  6 13:37:40 2022

Wall Time:        0.18 seconds

                                                       Time (seconds)
Module                                       User      System        Wall        Calls

--------------------------------------------------------------------------------------

**************************************************************************************

Host: smg13363-ws

Timers On : Thu Jan  6 13:37:48 2022
Timers Off: Thu Jan  6 13:37:48 2022

Wall Time:        0.18 seconds

                                                       Time (seconds)
Module                                       User      System        Wall        Calls

--------------------------------------------------------------------------------------

**************************************************************************************

Host: smg13363-ws

Timers On : Thu Jan  6 13:38:08 2022
Timers Off: Thu Jan  6 13:38:08 2022

Wall Time:        0.18 seconds

                                                       Time (seconds)
Module                                       User      System        Wall        Calls

--------------------------------------------------------------------------------------

**************************************************************************************

Host: smg13363-ws

Timers On : Thu Jan  6 13:38:19 2022
Timers Off: Thu Jan  6 13:38:20 2022

Wall Time:        0.18 seconds

                                                       Time (seconds)
Module                                       User      System        Wall        Calls

--------------------------------------------------------------------------------------

**************************************************************************************

Host: smg13363-ws

Timers On : Fri Jan  7 10:06:42 2022
Timers Off: Fri Jan  7 10:06:42 2022

Wall Time:        0.17 seconds

                                                       Time (seconds)
Module                                       User      System        Wall        Calls

--------------------------------------------------------------------------------------

**************************************************************************************

Host: smg13363-ws

Timers On : Fri Jan  7 10:08:36 2022
Timers Off: Fri Jan  7 10:08:36 2022

Wall Time:        0.17 seconds

                                                       Time (seconds)
Module                                       User      System        Wall        Calls

--------------------------------------------------------------------------------------

**************************************************************************************

Host: smg13363-ws

Timers On : Fri Jan  7 10:09:21 2022
Timers Off: Fri Jan  7 10:09:21 2022

Wall Time:        0.18 seconds

                                                       Time (seconds)
Module                                       User      System        Wall        Calls

--------------------------------------------------------------------------------------

**************************************************************************************

Host: smg13363-ws

Timers On : Fri Jan  7 10:15:29 2022
Timers Off: Fri Jan  7 10:15:29 2022

Wall Time:        0.23 seconds

                                                       Time (seconds)
Module                                       User      System        Wall        Calls

--------------------------------------------------------------------------------------

**************************************************************************************

Host: smg13363-ws

Timers On : Fri Jan  7 10:15:43 2022
Timers Off: Fri Jan  7 10:15:43 2022

Wall Time:        0.21 seconds

                                                       Time (seconds)
Module                                       User      System        Wall        Calls

--------------------------------------------------------------------------------------

**************************************************************************************

Host: smg13363-ws

Timers On : Fri Jan  7 10:16:05 2022
Timers Off: Fri Jan  7 10:16:05 2022

Wall Time:        0.24 seconds

                                                       Time (seconds)
Module                                       User      System        Wall        Calls

--------------------------------------------------------------------------------------

**************************************************************************************

Host: smg13363-ws

Timers On : Fri Jan  7 10:16:14 2022
Timers Off: Fri Jan  7 10:16:14 2022

Wall Time:        0.21 seconds

                                                       Time (seconds)
Module                                       User      System        Wall        Calls

--------------------------------------------------------------------------------------

**************************************************************************************

Host: smg13363-ws

Timers On : Fri Jan  7 10:16:24 2022
Timers Off: Fri Jan  7 10:16:24 2022

Wall Time:        0.21 seconds

                                                       Time (seconds)
Module                                       User      System        Wall        Calls

--------------------------------------------------------------------------------------

**************************************************************************************

Host: smg13363-ws

Timers On : Fri Jan  7 10:20:02 2022
Timers Off: Fri Jan  7 10:20:03 2022

Wall Time:        0.21 seconds

                                                       Time (seconds)
Module                                       User      System        Wall        Calls

--------------------------------------------------------------------------------------

**************************************************************************************

Host: smg13363-ws

Timers On : Fri Jan  7 10:21:14 2022
Timers Off: Fri Jan  7 10:21:15 2022

Wall Time:        0.19 seconds

                                                       Time (seconds)
Module                                       User      System        Wall        Calls

--------------------------------------------------------------------------------------

**************************************************************************************

Host: smg13363-ws

Timers On : Fri Jan  7 10:21:33 2022
Timers Off: Fri Jan  7 10:21:33 2022

Wall Time:        0.21 seconds

                                                       Time (seconds)
Module                                       User      System        Wall        Calls

--------------------------------------------------------------------------------------

**************************************************************************************

Host: smg13363-ws

Timers On : Fri Jan  7 10:25:01 2022
Timers Off: Fri Jan  7 10:25:02 2022

Wall Time:        0.21 seconds

                                                       Time (seconds)
Module                                       User      System        Wall        Calls

--------------------------------------------------------------------------------------

**************************************************************************************

Host: smg13363-ws

Timers On : Fri Jan  7 10:25:38 2022
Timers Off: Fri Jan  7 10:25:38 2022

Wall Time:        0.21 seconds

                                                       Time (seconds)
Module                                       User      System        Wall        Calls

--------------------------------------------------------------------------------------

**************************************************************************************

Host: smg13363-ws

Timers On : Fri Jan  7 10:26:14 2022
Timers Off: Fri Jan  7 10:26:15 2022

Wall Time:        0.21 seconds

                                                       Time (seconds)
Module                                       User      System        Wall        Calls

--------------------------------------------------------------------------------------

**************************************************************************************

Host: smg13363-ws

Timers On : Fri Jan  7 10:26:36 2022
Timers Off: Fri Jan  7 10:26:36 2022

Wall Time:        0.21 seconds

                                                       Time (seconds)
Module                                       User      System        Wall        Calls

--------------------------------------------------------------------------------------

**************************************************************************************

Host: smg13363-ws

Timers On : Fri Jan  7 10:33:53 2022
Timers Off: Fri Jan  7 10:33:54 2022

Wall Time:        0.21 seconds

                                                       Time (seconds)
Module                                       User      System        Wall        Calls

--------------------------------------------------------------------------------------

**************************************************************************************

Host: smg13363-ws

Timers On : Fri Jan  7 10:34:03 2022
Timers Off: Fri Jan  7 10:34:03 2022

Wall Time:        0.18 seconds

                                                       Time (seconds)
Module                                       User      System        Wall        Calls

--------------------------------------------------------------------------------------

**************************************************************************************

Host: smg13363-ws

Timers On : Fri Jan  7 10:34:40 2022
Timers Off: Fri Jan  7 10:34:40 2022

Wall Time:        0.17 seconds

                                                       Time (seconds)
Module                                       User      System        Wall        Calls

--------------------------------------------------------------------------------------

**************************************************************************************

Host: smg13363-ws

Timers On : Fri Jan  7 10:34:54 2022
Timers Off: Fri Jan  7 10:34:54 2022

Wall Time:        0.17 seconds

                                                       Time (seconds)
Module                                       User      System        Wall        Calls

--------------------------------------------------------------------------------------

**************************************************************************************

Host: smg13363-ws

Timers On : Fri Jan  7 10:35:29 2022
Timers Off: Fri Jan  7 10:35:29 2022

Wall Time:        0.18 seconds

                                                       Time (seconds)
Module                                       User      System        Wall        Calls

--------------------------------------------------------------------------------------

**************************************************************************************

Host: smg13363-ws

Timers On : Fri Jan  7 10:36:23 2022
Timers Off: Fri Jan  7 10:36:23 2022

Wall Time:        0.17 seconds

                                                       Time (seconds)
Module                                       User      System        Wall        Calls

--------------------------------------------------------------------------------------

**************************************************************************************

Host: smg13363-ws

Timers On : Fri Jan  7 10:36:33 2022
Timers Off: Fri Jan  7 10:36:33 2022

Wall Time:        0.17 seconds

                                                       Time (seconds)
Module                                       User      System        Wall        Calls

--------------------------------------------------------------------------------------

**************************************************************************************

Host: smg13363-ws

Timers On : Fri Jan  7 10:36:58 2022
Timers Off: Fri Jan  7 10:36:58 2022

Wall Time:        0.17 seconds

                                                       Time (seconds)
Module                                       User      System        Wall        Calls

--------------------------------------------------------------------------------------

**************************************************************************************

Host: smg13363-ws

Timers On : Fri Jan  7 10:45:36 2022
Timers Off: Fri Jan  7 10:45:36 2022

Wall Time:        0.18 seconds

                                                       Time (seconds)
Module                                       User      System        Wall        Calls

--------------------------------------------------------------------------------------

**************************************************************************************

Host: smg13363-ws

Timers On : Fri Jan  7 10:48:12 2022
Timers Off: Fri Jan  7 10:48:13 2022

Wall Time:        0.17 seconds

                                                       Time (seconds)
Module                                       User      System        Wall        Calls

--------------------------------------------------------------------------------------

**************************************************************************************

Host: smg13363-ws

Timers On : Fri Jan  7 10:48:35 2022
Timers Off: Fri Jan  7 10:48:35 2022

Wall Time:        0.17 seconds

                                                       Time (seconds)
Module                                       User      System        Wall        Calls

--------------------------------------------------------------------------------------

**************************************************************************************

Host: smg13363-ws

Timers On : Fri Jan  7 10:48:47 2022
Timers Off: Fri Jan  7 10:48:47 2022

Wall Time:        0.17 seconds

                                                       Time (seconds)
Module                                       User      System        Wall        Calls

--------------------------------------------------------------------------------------

**************************************************************************************

Host: smg13363-ws

Timers On : Fri Jan  7 10:49:01 2022
Timers Off: Fri Jan  7 10:49:01 2022

Wall Time:        0.17 seconds

                                                       Time (seconds)
Module                                       User      System        Wall        Calls

--------------------------------------------------------------------------------------

**************************************************************************************

Host: smg13363-ws

Timers On : Fri Jan  7 10:49:26 2022
Timers Off: Fri Jan  7 10:49:26 2022

Wall Time:        0.17 seconds

                                                       Time (seconds)
Module                                       User      System        Wall        Calls

--------------------------------------------------------------------------------------

**************************************************************************************

Host: smg13363-ws

Timers On : Fri Jan  7 10:50:55 2022
Timers Off: Fri Jan  7 10:50:55 2022

Wall Time:        0.17 seconds

                                                       Time (seconds)
Module                                       User      System        Wall        Calls

--------------------------------------------------------------------------------------

**************************************************************************************

Host: smg13363-ws

Timers On : Fri Jan  7 10:52:12 2022
Timers Off: Fri Jan  7 10:52:12 2022

Wall Time:        0.17 seconds

                                                       Time (seconds)
Module                                       User      System        Wall        Calls

--------------------------------------------------------------------------------------

**************************************************************************************

Host: smg13363-ws

Timers On : Fri Jan  7 10:53:08 2022
Timers Off: Fri Jan  7 10:53:08 2022

Wall Time:        0.17 seconds

                                                       Time (seconds)
Module                                       User      System        Wall        Calls

--------------------------------------------------------------------------------------

**************************************************************************************

Host: smg13363-ws

Timers On : Fri Jan  7 10:54:10 2022
Timers Off: Fri Jan  7 10:54:10 2022

Wall Time:        0.17 seconds

                                                       Time (seconds)
Module                                       User      System        Wall        Calls

--------------------------------------------------------------------------------------

**************************************************************************************

Host: smg13363-ws

Timers On : Fri Jan  7 10:54:32 2022
Timers Off: Fri Jan  7 10:54:32 2022

Wall Time:        0.17 seconds

                                                       Time (seconds)
Module                                       User      System        Wall        Calls

--------------------------------------------------------------------------------------

**************************************************************************************

Host: smg13363-ws

Timers On : Fri Jan  7 10:54:52 2022
Timers Off: Fri Jan  7 10:54:52 2022

Wall Time:        0.17 seconds

                                                       Time (seconds)
Module                                       User      System        Wall        Calls

--------------------------------------------------------------------------------------

**************************************************************************************

Host: smg13363-ws

Timers On : Fri Jan  7 10:55:04 2022
Timers Off: Fri Jan  7 10:55:04 2022

Wall Time:        0.20 seconds

                                                       Time (seconds)
Module                                       User      System        Wall        Calls

--------------------------------------------------------------------------------------

**************************************************************************************

Host: smg13363-ws

Timers On : Fri Jan  7 11:04:47 2022
Timers Off: Fri Jan  7 11:04:47 2022

Wall Time:        0.20 seconds

                                                       Time (seconds)
Module                                       User      System        Wall        Calls

--------------------------------------------------------------------------------------

**************************************************************************************

Host: smg13363-ws

Timers On : Fri Jan  7 11:06:16 2022
Timers Off: Fri Jan  7 11:06:16 2022

Wall Time:        0.21 seconds

                                                       Time (seconds)
Module                                       User      System        Wall        Calls

--------------------------------------------------------------------------------------

**************************************************************************************

Host: smg13363-ws

Timers On : Fri Jan  7 11:06:35 2022
Timers Off: Fri Jan  7 11:06:35 2022

Wall Time:        0.20 seconds

                                                       Time (seconds)
Module                                       User      System        Wall        Calls

--------------------------------------------------------------------------------------

**************************************************************************************

Host: smg13363-ws

Timers On : Fri Jan  7 11:06:46 2022
Timers Off: Fri Jan  7 11:06:46 2022

Wall Time:        0.17 seconds

                                                       Time (seconds)
Module                                       User      System        Wall        Calls

--------------------------------------------------------------------------------------

**************************************************************************************

Host: smg13363-ws

Timers On : Fri Jan  7 11:07:49 2022
Timers Off: Fri Jan  7 11:07:49 2022

Wall Time:        0.17 seconds

                                                       Time (seconds)
Module                                       User      System        Wall        Calls

--------------------------------------------------------------------------------------

**************************************************************************************

Host: smg13363-ws

Timers On : Fri Jan  7 11:08:12 2022
Timers Off: Fri Jan  7 11:08:13 2022

Wall Time:        0.20 seconds

                                                       Time (seconds)
Module                                       User      System        Wall        Calls

--------------------------------------------------------------------------------------

**************************************************************************************

Host: smg13363-ws

Timers On : Fri Jan  7 11:10:04 2022
Timers Off: Fri Jan  7 11:10:04 2022

Wall Time:        0.20 seconds

                                                       Time (seconds)
Module                                       User      System        Wall        Calls

--------------------------------------------------------------------------------------

**************************************************************************************

Host: smg13363-ws

Timers On : Fri Jan  7 11:18:10 2022
Timers Off: Fri Jan  7 11:18:10 2022

Wall Time:        0.20 seconds

                                                       Time (seconds)
Module                                       User      System        Wall        Calls

--------------------------------------------------------------------------------------

**************************************************************************************
