
Host: smg13363-ws

Timers On : Wed Jan  5 09:48:43 2022
Timers Off: Wed Jan  5 09:48:43 2022

Wall Time:        0.40 seconds

                                                       Time (seconds)
Module                                       User      System        Wall        Calls

--------------------------------------------------------------------------------------

**************************************************************************************

Host: smg13363-ws

Timers On : Wed Jan  5 09:49:03 2022
Timers Off: Wed Jan  5 09:49:03 2022

Wall Time:        0.21 seconds

                                                       Time (seconds)
Module                                       User      System        Wall        Calls

--------------------------------------------------------------------------------------

**************************************************************************************

Host: smg13363-ws

Timers On : Wed Jan  5 09:51:01 2022
Timers Off: Wed Jan  5 09:51:01 2022

Wall Time:        0.21 seconds

                                                       Time (seconds)
Module                                       User      System        Wall        Calls

--------------------------------------------------------------------------------------

**************************************************************************************

Host: smg13363-ws

Timers On : Wed Jan  5 09:53:05 2022
Timers Off: Wed Jan  5 09:53:06 2022

Wall Time:        0.21 seconds

                                                       Time (seconds)
Module                                       User      System        Wall        Calls

--------------------------------------------------------------------------------------

**************************************************************************************

Host: smg13363-ws

Timers On : Wed Jan  5 09:54:41 2022
Timers Off: Wed Jan  5 09:54:41 2022

Wall Time:        0.24 seconds

                                                       Time (seconds)
Module                                       User      System        Wall        Calls

--------------------------------------------------------------------------------------

**************************************************************************************

Host: smg13363-ws

Timers On : Wed Jan  5 09:55:30 2022
Timers Off: Wed Jan  5 09:55:30 2022

Wall Time:        0.23 seconds

                                                       Time (seconds)
Module                                       User      System        Wall        Calls

--------------------------------------------------------------------------------------

**************************************************************************************

Host: smg13363-ws

Timers On : Wed Jan  5 09:56:22 2022
Timers Off: Wed Jan  5 09:56:22 2022

Wall Time:        0.23 seconds

                                                       Time (seconds)
Module                                       User      System        Wall        Calls

--------------------------------------------------------------------------------------

**************************************************************************************

Host: smg13363-ws

Timers On : Wed Jan  5 09:56:56 2022
Timers Off: Wed Jan  5 09:56:56 2022

Wall Time:        0.23 seconds

                                                       Time (seconds)
Module                                       User      System        Wall        Calls

--------------------------------------------------------------------------------------

**************************************************************************************

Host: smg13363-ws

Timers On : Wed Jan  5 09:57:38 2022
Timers Off: Wed Jan  5 09:57:39 2022

Wall Time:        0.23 seconds

                                                       Time (seconds)
Module                                       User      System        Wall        Calls

--------------------------------------------------------------------------------------

**************************************************************************************

Host: smg13363-ws

Timers On : Wed Jan  5 09:59:32 2022
Timers Off: Wed Jan  5 09:59:32 2022

Wall Time:        0.25 seconds

                                                       Time (seconds)
Module                                       User      System        Wall        Calls

--------------------------------------------------------------------------------------

**************************************************************************************

Host: smg13363-ws

Timers On : Wed Jan  5 10:00:05 2022
Timers Off: Wed Jan  5 10:00:06 2022

Wall Time:        0.23 seconds

                                                       Time (seconds)
Module                                       User      System        Wall        Calls

--------------------------------------------------------------------------------------

**************************************************************************************

Host: smg13363-ws

Timers On : Wed Jan  5 10:00:46 2022
Timers Off: Wed Jan  5 10:00:46 2022

Wall Time:        0.23 seconds

                                                       Time (seconds)
Module                                       User      System        Wall        Calls

--------------------------------------------------------------------------------------

**************************************************************************************

Host: smg13363-ws

Timers On : Wed Jan  5 10:01:08 2022
Timers Off: Wed Jan  5 10:01:08 2022

Wall Time:        0.23 seconds

                                                       Time (seconds)
Module                                       User      System        Wall        Calls

--------------------------------------------------------------------------------------

**************************************************************************************

Host: smg13363-ws

Timers On : Wed Jan  5 10:03:06 2022
Timers Off: Wed Jan  5 10:03:06 2022

Wall Time:        0.24 seconds

                                                       Time (seconds)
Module                                       User      System        Wall        Calls

--------------------------------------------------------------------------------------

**************************************************************************************

Host: smg13363-ws

Timers On : Wed Jan  5 10:03:37 2022
Timers Off: Wed Jan  5 10:03:37 2022

Wall Time:        0.24 seconds

                                                       Time (seconds)
Module                                       User      System        Wall        Calls

--------------------------------------------------------------------------------------

**************************************************************************************

Host: smg13363-ws

Timers On : Wed Jan  5 10:04:24 2022
Timers Off: Wed Jan  5 10:04:24 2022

Wall Time:        0.24 seconds

                                                       Time (seconds)
Module                                       User      System        Wall        Calls

--------------------------------------------------------------------------------------

**************************************************************************************

Host: smg13363-ws

Timers On : Wed Jan  5 10:12:29 2022
Timers Off: Wed Jan  5 10:12:30 2022

Wall Time:        0.23 seconds

                                                       Time (seconds)
Module                                       User      System        Wall        Calls

--------------------------------------------------------------------------------------

**************************************************************************************

Host: smg13363-ws

Timers On : Wed Jan  5 10:12:51 2022
Timers Off: Wed Jan  5 10:12:51 2022

Wall Time:        0.23 seconds

                                                       Time (seconds)
Module                                       User      System        Wall        Calls

--------------------------------------------------------------------------------------

**************************************************************************************

Host: smg13363-ws

Timers On : Wed Jan  5 10:14:10 2022
Timers Off: Wed Jan  5 10:14:10 2022

Wall Time:        0.23 seconds

                                                       Time (seconds)
Module                                       User      System        Wall        Calls

--------------------------------------------------------------------------------------

**************************************************************************************

Host: smg13363-ws

Timers On : Wed Jan  5 10:15:07 2022
Timers Off: Wed Jan  5 10:15:07 2022

Wall Time:        0.26 seconds

                                                       Time (seconds)
Module                                       User      System        Wall        Calls

--------------------------------------------------------------------------------------

**************************************************************************************

Host: smg13363-ws

Timers On : Wed Jan  5 10:15:12 2022
Timers Off: Wed Jan  5 10:15:12 2022

Wall Time:        0.23 seconds

                                                       Time (seconds)
Module                                       User      System        Wall        Calls

--------------------------------------------------------------------------------------

**************************************************************************************

Host: smg13363-ws

Timers On : Wed Jan  5 10:20:49 2022
Timers Off: Wed Jan  5 10:20:49 2022

Wall Time:        0.23 seconds

                                                       Time (seconds)
Module                                       User      System        Wall        Calls

--------------------------------------------------------------------------------------

**************************************************************************************

Host: smg13363-ws

Timers On : Wed Jan  5 10:24:02 2022
Timers Off: Wed Jan  5 10:24:02 2022

Wall Time:        0.23 seconds

                                                       Time (seconds)
Module                                       User      System        Wall        Calls

--------------------------------------------------------------------------------------

**************************************************************************************

Host: smg13363-ws

Timers On : Wed Jan  5 10:24:32 2022
Timers Off: Wed Jan  5 10:24:32 2022

Wall Time:        0.23 seconds

                                                       Time (seconds)
Module                                       User      System        Wall        Calls

--------------------------------------------------------------------------------------

**************************************************************************************

Host: smg13363-ws

Timers On : Wed Jan  5 10:40:25 2022
Timers Off: Wed Jan  5 10:40:25 2022

Wall Time:        0.24 seconds

                                                       Time (seconds)
Module                                       User      System        Wall        Calls

--------------------------------------------------------------------------------------

**************************************************************************************

Host: smg13363-ws

Timers On : Wed Jan  5 10:41:09 2022
Timers Off: Wed Jan  5 10:41:10 2022

Wall Time:        0.24 seconds

                                                       Time (seconds)
Module                                       User      System        Wall        Calls

--------------------------------------------------------------------------------------

**************************************************************************************

Host: smg13363-ws

Timers On : Wed Jan  5 10:41:51 2022
Timers Off: Wed Jan  5 10:41:52 2022

Wall Time:        0.23 seconds

                                                       Time (seconds)
Module                                       User      System        Wall        Calls

--------------------------------------------------------------------------------------

**************************************************************************************

Host: smg13363-ws

Timers On : Wed Jan  5 10:45:47 2022
Timers Off: Wed Jan  5 10:45:47 2022

Wall Time:        0.24 seconds

                                                       Time (seconds)
Module                                       User      System        Wall        Calls

--------------------------------------------------------------------------------------

**************************************************************************************

Host: smg13363-ws

Timers On : Wed Jan  5 10:47:14 2022
Timers Off: Wed Jan  5 10:47:14 2022

Wall Time:        0.23 seconds

                                                       Time (seconds)
Module                                       User      System        Wall        Calls

--------------------------------------------------------------------------------------

**************************************************************************************

Host: smg13363-ws

Timers On : Wed Jan  5 10:47:32 2022
Timers Off: Wed Jan  5 10:47:33 2022

Wall Time:        0.24 seconds

                                                       Time (seconds)
Module                                       User      System        Wall        Calls

--------------------------------------------------------------------------------------

**************************************************************************************

Host: smg13363-ws

Timers On : Wed Jan  5 10:48:36 2022
Timers Off: Wed Jan  5 10:48:37 2022

Wall Time:        0.24 seconds

                                                       Time (seconds)
Module                                       User      System        Wall        Calls

--------------------------------------------------------------------------------------

**************************************************************************************

Host: smg13363-ws

Timers On : Wed Jan  5 10:48:59 2022
Timers Off: Wed Jan  5 10:48:59 2022

Wall Time:        0.24 seconds

                                                       Time (seconds)
Module                                       User      System        Wall        Calls

--------------------------------------------------------------------------------------

**************************************************************************************

Host: smg13363-ws

Timers On : Wed Jan  5 11:09:35 2022
Timers Off: Wed Jan  5 11:09:35 2022

Wall Time:        0.23 seconds

                                                       Time (seconds)
Module                                       User      System        Wall        Calls

--------------------------------------------------------------------------------------

**************************************************************************************

Host: smg13363-ws

Timers On : Wed Jan  5 11:09:46 2022
Timers Off: Wed Jan  5 11:09:46 2022

Wall Time:        0.24 seconds

                                                       Time (seconds)
Module                                       User      System        Wall        Calls

--------------------------------------------------------------------------------------

**************************************************************************************

Host: smg13363-ws

Timers On : Wed Jan  5 11:10:15 2022
Timers Off: Wed Jan  5 11:10:15 2022

Wall Time:        0.24 seconds

                                                       Time (seconds)
Module                                       User      System        Wall        Calls

--------------------------------------------------------------------------------------

**************************************************************************************

Host: smg13363-ws

Timers On : Wed Jan  5 11:10:32 2022
Timers Off: Wed Jan  5 11:10:32 2022

Wall Time:        0.24 seconds

                                                       Time (seconds)
Module                                       User      System        Wall        Calls

--------------------------------------------------------------------------------------

**************************************************************************************

Host: smg13363-ws

Timers On : Wed Jan  5 11:11:00 2022
Timers Off: Wed Jan  5 11:11:00 2022

Wall Time:        0.24 seconds

                                                       Time (seconds)
Module                                       User      System        Wall        Calls

--------------------------------------------------------------------------------------

**************************************************************************************

Host: smg13363-ws

Timers On : Wed Jan  5 11:11:10 2022
Timers Off: Wed Jan  5 11:11:10 2022

Wall Time:        0.24 seconds

                                                       Time (seconds)
Module                                       User      System        Wall        Calls

--------------------------------------------------------------------------------------

**************************************************************************************

Host: smg13363-ws

Timers On : Wed Jan  5 11:52:23 2022
Timers Off: Wed Jan  5 11:52:23 2022

Wall Time:        0.24 seconds

                                                       Time (seconds)
Module                                       User      System        Wall        Calls

--------------------------------------------------------------------------------------

**************************************************************************************

Host: smg13363-ws

Timers On : Wed Jan  5 11:54:17 2022
Timers Off: Wed Jan  5 11:54:18 2022

Wall Time:        0.24 seconds

                                                       Time (seconds)
Module                                       User      System        Wall        Calls

--------------------------------------------------------------------------------------

**************************************************************************************

Host: smg13363-ws

Timers On : Wed Jan  5 11:54:45 2022
Timers Off: Wed Jan  5 11:54:45 2022

Wall Time:        0.24 seconds

                                                       Time (seconds)
Module                                       User      System        Wall        Calls

--------------------------------------------------------------------------------------

**************************************************************************************

Host: smg13363-ws

Timers On : Wed Jan  5 12:02:50 2022
Timers Off: Wed Jan  5 12:02:50 2022

Wall Time:        0.24 seconds

                                                       Time (seconds)
Module                                       User      System        Wall        Calls

--------------------------------------------------------------------------------------

**************************************************************************************

Host: smg13363-ws

Timers On : Wed Jan  5 12:03:12 2022
Timers Off: Wed Jan  5 12:03:12 2022

Wall Time:        0.24 seconds

                                                       Time (seconds)
Module                                       User      System        Wall        Calls

--------------------------------------------------------------------------------------

**************************************************************************************

Host: smg13363-ws

Timers On : Wed Jan  5 12:05:23 2022
Timers Off: Wed Jan  5 12:05:24 2022

Wall Time:        0.24 seconds

                                                       Time (seconds)
Module                                       User      System        Wall        Calls

--------------------------------------------------------------------------------------

**************************************************************************************

Host: smg13363-ws

Timers On : Wed Jan  5 13:26:44 2022
Timers Off: Wed Jan  5 13:26:45 2022

Wall Time:        0.24 seconds

                                                       Time (seconds)
Module                                       User      System        Wall        Calls

--------------------------------------------------------------------------------------

**************************************************************************************

Host: smg13363-ws

Timers On : Wed Jan  5 13:26:53 2022
Timers Off: Wed Jan  5 13:26:53 2022

Wall Time:        0.24 seconds

                                                       Time (seconds)
Module                                       User      System        Wall        Calls

--------------------------------------------------------------------------------------

**************************************************************************************

Host: smg13363-ws

Timers On : Wed Jan  5 13:27:06 2022
Timers Off: Wed Jan  5 13:27:06 2022

Wall Time:        0.24 seconds

                                                       Time (seconds)
Module                                       User      System        Wall        Calls

--------------------------------------------------------------------------------------

**************************************************************************************

Host: smg13363-ws

Timers On : Wed Jan  5 13:27:13 2022
Timers Off: Wed Jan  5 13:27:13 2022

Wall Time:        0.24 seconds

                                                       Time (seconds)
Module                                       User      System        Wall        Calls

--------------------------------------------------------------------------------------

**************************************************************************************

Host: smg13363-ws

Timers On : Wed Jan  5 13:27:21 2022
Timers Off: Wed Jan  5 13:27:21 2022

Wall Time:        0.24 seconds

                                                       Time (seconds)
Module                                       User      System        Wall        Calls

--------------------------------------------------------------------------------------

**************************************************************************************

Host: smg13363-ws

Timers On : Wed Jan  5 13:37:41 2022
Timers Off: Wed Jan  5 13:37:41 2022

Wall Time:        0.24 seconds

                                                       Time (seconds)
Module                                       User      System        Wall        Calls

--------------------------------------------------------------------------------------

**************************************************************************************

Host: smg13363-ws

Timers On : Wed Jan  5 13:38:15 2022
Timers Off: Wed Jan  5 13:38:15 2022

Wall Time:        0.24 seconds

                                                       Time (seconds)
Module                                       User      System        Wall        Calls

--------------------------------------------------------------------------------------

**************************************************************************************

Host: smg13363-ws

Timers On : Wed Jan  5 13:38:25 2022
Timers Off: Wed Jan  5 13:38:25 2022

Wall Time:        0.24 seconds

                                                       Time (seconds)
Module                                       User      System        Wall        Calls

--------------------------------------------------------------------------------------

**************************************************************************************

Host: smg13363-ws

Timers On : Wed Jan  5 13:41:19 2022
Timers Off: Wed Jan  5 13:41:20 2022

Wall Time:        0.24 seconds

                                                       Time (seconds)
Module                                       User      System        Wall        Calls

--------------------------------------------------------------------------------------

**************************************************************************************

Host: smg13363-ws

Timers On : Wed Jan  5 13:46:46 2022
Timers Off: Wed Jan  5 13:46:46 2022

Wall Time:        0.23 seconds

                                                       Time (seconds)
Module                                       User      System        Wall        Calls

--------------------------------------------------------------------------------------

**************************************************************************************

Host: smg13363-ws

Timers On : Wed Jan  5 13:46:58 2022
Timers Off: Wed Jan  5 13:46:58 2022

Wall Time:        0.23 seconds

                                                       Time (seconds)
Module                                       User      System        Wall        Calls

--------------------------------------------------------------------------------------

**************************************************************************************

Host: smg13363-ws

Timers On : Wed Jan  5 13:47:28 2022
Timers Off: Wed Jan  5 13:47:28 2022

Wall Time:        0.24 seconds

                                                       Time (seconds)
Module                                       User      System        Wall        Calls

--------------------------------------------------------------------------------------

**************************************************************************************

Host: smg13363-ws

Timers On : Wed Jan  5 13:48:20 2022
Timers Off: Wed Jan  5 13:48:21 2022

Wall Time:        0.24 seconds

                                                       Time (seconds)
Module                                       User      System        Wall        Calls

--------------------------------------------------------------------------------------

**************************************************************************************

Host: smg13363-ws

Timers On : Wed Jan  5 13:48:37 2022
Timers Off: Wed Jan  5 13:48:37 2022

Wall Time:        0.24 seconds

                                                       Time (seconds)
Module                                       User      System        Wall        Calls

--------------------------------------------------------------------------------------

**************************************************************************************

Host: smg13363-ws

Timers On : Wed Jan  5 13:55:12 2022
Timers Off: Wed Jan  5 13:55:12 2022

Wall Time:        0.24 seconds

                                                       Time (seconds)
Module                                       User      System        Wall        Calls

--------------------------------------------------------------------------------------

**************************************************************************************

Host: smg13363-ws

Timers On : Wed Jan  5 13:55:53 2022
Timers Off: Wed Jan  5 13:55:54 2022

Wall Time:        0.24 seconds

                                                       Time (seconds)
Module                                       User      System        Wall        Calls

--------------------------------------------------------------------------------------

**************************************************************************************

Host: smg13363-ws

Timers On : Wed Jan  5 14:04:07 2022
Timers Off: Wed Jan  5 14:04:07 2022

Wall Time:        0.24 seconds

                                                       Time (seconds)
Module                                       User      System        Wall        Calls

--------------------------------------------------------------------------------------

**************************************************************************************

Host: smg13363-ws

Timers On : Wed Jan  5 14:07:16 2022
Timers Off: Wed Jan  5 14:07:16 2022

Wall Time:        0.24 seconds

                                                       Time (seconds)
Module                                       User      System        Wall        Calls

--------------------------------------------------------------------------------------

**************************************************************************************

Host: smg13363-ws

Timers On : Wed Jan  5 14:09:17 2022
Timers Off: Wed Jan  5 14:09:17 2022

Wall Time:        0.24 seconds

                                                       Time (seconds)
Module                                       User      System        Wall        Calls

--------------------------------------------------------------------------------------

**************************************************************************************

Host: smg13363-ws

Timers On : Wed Jan  5 14:16:11 2022
Timers Off: Wed Jan  5 14:16:11 2022

Wall Time:        0.24 seconds

                                                       Time (seconds)
Module                                       User      System        Wall        Calls

--------------------------------------------------------------------------------------

**************************************************************************************

Host: smg13363-ws

Timers On : Wed Jan  5 14:16:53 2022
Timers Off: Wed Jan  5 14:16:53 2022

Wall Time:        0.24 seconds

                                                       Time (seconds)
Module                                       User      System        Wall        Calls

--------------------------------------------------------------------------------------

**************************************************************************************

Host: smg13363-ws

Timers On : Wed Jan  5 14:19:25 2022
Timers Off: Wed Jan  5 14:19:25 2022

Wall Time:        0.24 seconds

                                                       Time (seconds)
Module                                       User      System        Wall        Calls

--------------------------------------------------------------------------------------

**************************************************************************************

Host: smg13363-ws

Timers On : Wed Jan  5 14:19:49 2022
Timers Off: Wed Jan  5 14:19:49 2022

Wall Time:        0.24 seconds

                                                       Time (seconds)
Module                                       User      System        Wall        Calls

--------------------------------------------------------------------------------------

**************************************************************************************

Host: smg13363-ws

Timers On : Wed Jan  5 14:21:13 2022
Timers Off: Wed Jan  5 14:21:13 2022

Wall Time:        0.24 seconds

                                                       Time (seconds)
Module                                       User      System        Wall        Calls

--------------------------------------------------------------------------------------

**************************************************************************************

Host: smg13363-ws

Timers On : Wed Jan  5 14:22:21 2022
Timers Off: Wed Jan  5 14:22:21 2022

Wall Time:        0.24 seconds

                                                       Time (seconds)
Module                                       User      System        Wall        Calls

--------------------------------------------------------------------------------------

**************************************************************************************

Host: smg13363-ws

Timers On : Wed Jan  5 14:22:28 2022
Timers Off: Wed Jan  5 14:22:28 2022

Wall Time:        0.24 seconds

                                                       Time (seconds)
Module                                       User      System        Wall        Calls

--------------------------------------------------------------------------------------

**************************************************************************************

Host: smg13363-ws

Timers On : Wed Jan  5 14:22:43 2022
Timers Off: Wed Jan  5 14:22:44 2022

Wall Time:        0.24 seconds

                                                       Time (seconds)
Module                                       User      System        Wall        Calls

--------------------------------------------------------------------------------------

**************************************************************************************

Host: smg13363-ws

Timers On : Wed Jan  5 14:23:04 2022
Timers Off: Wed Jan  5 14:23:04 2022

Wall Time:        0.24 seconds

                                                       Time (seconds)
Module                                       User      System        Wall        Calls

--------------------------------------------------------------------------------------

**************************************************************************************

Host: smg13363-ws

Timers On : Wed Jan  5 14:23:09 2022
Timers Off: Wed Jan  5 14:23:10 2022

Wall Time:        0.24 seconds

                                                       Time (seconds)
Module                                       User      System        Wall        Calls

--------------------------------------------------------------------------------------

**************************************************************************************

Host: smg13363-ws

Timers On : Wed Jan  5 14:54:57 2022
Timers Off: Wed Jan  5 14:54:58 2022

Wall Time:        0.24 seconds

                                                       Time (seconds)
Module                                       User      System        Wall        Calls

--------------------------------------------------------------------------------------

**************************************************************************************
