
Host: nlk36701-OptiPlex-7060

Timers On : Mon Jan 10 10:51:05 2022
Timers Off: Mon Jan 10 10:51:05 2022

Wall Time:        0.00 seconds

                                                       Time (seconds)
Module                                       User      System        Wall        Calls

--------------------------------------------------------------------------------------

**************************************************************************************

Host: nlk36701-OptiPlex-7060

Timers On : Mon Jan 10 10:51:16 2022
Timers Off: Mon Jan 10 10:51:16 2022

Wall Time:        0.25 seconds

                                                       Time (seconds)
Module                                       User      System        Wall        Calls

--------------------------------------------------------------------------------------

**************************************************************************************

Host: nlk36701-OptiPlex-7060

Timers On : Mon Jan 10 10:51:40 2022
Timers Off: Mon Jan 10 10:51:40 2022

Wall Time:        0.24 seconds

                                                       Time (seconds)
Module                                       User      System        Wall        Calls

--------------------------------------------------------------------------------------

**************************************************************************************

Host: nlk36701-OptiPlex-7060

Timers On : Mon Jan 10 10:51:53 2022
Timers Off: Mon Jan 10 10:51:53 2022

Wall Time:        0.25 seconds

                                                       Time (seconds)
Module                                       User      System        Wall        Calls

--------------------------------------------------------------------------------------

**************************************************************************************

Host: nlk36701-OptiPlex-7060

Timers On : Mon Jan 10 10:53:14 2022
Timers Off: Mon Jan 10 10:53:14 2022

Wall Time:        0.24 seconds

                                                       Time (seconds)
Module                                       User      System        Wall        Calls

--------------------------------------------------------------------------------------

**************************************************************************************

Host: nlk36701-OptiPlex-7060

Timers On : Mon Jan 10 10:53:55 2022
Timers Off: Mon Jan 10 10:53:55 2022

Wall Time:        0.37 seconds

                                                       Time (seconds)
Module                                       User      System        Wall        Calls
Total PK formation time             :      0.017u      0.000s      0.004w      1 calls
Libint2ERI::Libint2ERI              :      0.000u      0.000s      0.001w      2 calls
HF: Form core H                     :      0.000u      0.000s      0.001w      1 calls
HF: Form S/X                        :      0.000u      0.000s      0.002w      1 calls
HF: Guess                           :      0.033u      0.000s      0.025w      1 calls
SAD Guess                           :      0.033u      0.000s      0.024w      1 calls
HF: Form G                          :      0.000u      0.000s      0.000w      8 calls
JK: D                               :      0.000u      0.000s      0.000w      8 calls
JK: USO2AO                          :      0.000u      0.000s      0.000w      8 calls
JK: JK                              :      0.000u      0.000s      0.000w      8 calls
PK computes JK                      :      0.000u      0.000s      0.000w      8 calls
JK: AO2USO                          :      0.000u      0.000s      0.000w      8 calls
HF: Form F                          :      0.000u      0.000s      0.000w      8 calls
HF: Form D                          :      0.000u      0.000s      0.000w      8 calls
HF: DIIS                            :      0.000u      0.000s      0.006w      7 calls
HF: Form C                          :      0.000u      0.000s      0.001w      7 calls

--------------------------------------------------------------------------------------
Total PK formation time             :      0.017u      0.000s      0.004w      1 calls
| Libint2ERI::Libint2ERI            :      0.000u      0.000s      0.001w      2 calls
HF: Form core H                     :      0.000u      0.000s      0.001w      1 calls
HF: Form S/X                        :      0.000u      0.000s      0.002w      1 calls
HF: Guess                           :      0.033u      0.000s      0.025w      1 calls
| SAD Guess                         :      0.033u      0.000s      0.024w      1 calls
HF: Form G                          :      0.000u      0.000s      0.000w      8 calls
| JK: D                             :      0.000u      0.000s      0.000w      8 calls
| JK: USO2AO                        :      0.000u      0.000s      0.000w      8 calls
| JK: JK                            :      0.000u      0.000s      0.000w      8 calls
| | PK computes JK                  :      0.000u      0.000s      0.000w      8 calls
| JK: AO2USO                        :      0.000u      0.000s      0.000w      8 calls
HF: Form F                          :      0.000u      0.000s      0.000w      8 calls
HF: Form D                          :      0.000u      0.000s      0.000w      8 calls
HF: DIIS                            :      0.000u      0.000s      0.006w      7 calls
HF: Form C                          :      0.000u      0.000s      0.001w      7 calls

**************************************************************************************

Host: nlk36701-OptiPlex-7060

Timers On : Mon Jan 10 10:59:09 2022
Timers Off: Mon Jan 10 10:59:09 2022

Wall Time:        0.36 seconds

                                                       Time (seconds)
Module                                       User      System        Wall        Calls
Total PK formation time             :      0.000u      0.000s      0.004w      1 calls
Libint2ERI::Libint2ERI              :      0.000u      0.000s      0.001w      2 calls
HF: Form core H                     :      0.000u      0.000s      0.000w      1 calls
HF: Form S/X                        :      0.000u      0.000s      0.000w      1 calls
HF: Guess                           :      0.033u      0.000s      0.023w      1 calls
SAD Guess                           :      0.033u      0.000s      0.021w      1 calls
HF: Form G                          :      0.000u      0.000s      0.000w      8 calls
JK: D                               :      0.000u      0.000s      0.000w      8 calls
JK: USO2AO                          :      0.000u      0.000s      0.000w      8 calls
JK: JK                              :      0.000u      0.000s      0.000w      8 calls
PK computes JK                      :      0.000u      0.000s      0.000w      8 calls
JK: AO2USO                          :      0.000u      0.000s      0.000w      8 calls
HF: Form F                          :      0.000u      0.000s      0.000w      8 calls
HF: Form D                          :      0.000u      0.000s      0.000w      8 calls
HF: DIIS                            :      0.017u      0.000s      0.006w      7 calls
HF: Form C                          :      0.000u      0.000s      0.001w      7 calls

--------------------------------------------------------------------------------------
Total PK formation time             :      0.000u      0.000s      0.004w      1 calls
| Libint2ERI::Libint2ERI            :      0.000u      0.000s      0.001w      2 calls
HF: Form core H                     :      0.000u      0.000s      0.000w      1 calls
HF: Form S/X                        :      0.000u      0.000s      0.000w      1 calls
HF: Guess                           :      0.033u      0.000s      0.023w      1 calls
| SAD Guess                         :      0.033u      0.000s      0.021w      1 calls
HF: Form G                          :      0.000u      0.000s      0.000w      8 calls
| JK: D                             :      0.000u      0.000s      0.000w      8 calls
| JK: USO2AO                        :      0.000u      0.000s      0.000w      8 calls
| JK: JK                            :      0.000u      0.000s      0.000w      8 calls
| | PK computes JK                  :      0.000u      0.000s      0.000w      8 calls
| JK: AO2USO                        :      0.000u      0.000s      0.000w      8 calls
HF: Form F                          :      0.000u      0.000s      0.000w      8 calls
HF: Form D                          :      0.000u      0.000s      0.000w      8 calls
HF: DIIS                            :      0.017u      0.000s      0.006w      7 calls
HF: Form C                          :      0.000u      0.000s      0.001w      7 calls

**************************************************************************************

Host: nlk36701-OptiPlex-7060

Timers On : Mon Jan 10 10:59:44 2022
Timers Off: Mon Jan 10 10:59:45 2022

Wall Time:        0.36 seconds

                                                       Time (seconds)
Module                                       User      System        Wall        Calls
Total PK formation time             :      0.017u      0.000s      0.004w      1 calls
Libint2ERI::Libint2ERI              :      0.017u      0.000s      0.001w      2 calls
HF: Form core H                     :      0.000u      0.000s      0.000w      1 calls
HF: Form S/X                        :      0.000u      0.000s      0.000w      1 calls
HF: Guess                           :      0.033u      0.000s      0.023w      1 calls
SAD Guess                           :      0.033u      0.000s      0.021w      1 calls
HF: Form G                          :      0.000u      0.000s      0.000w      8 calls
JK: D                               :      0.000u      0.000s      0.000w      8 calls
JK: USO2AO                          :      0.000u      0.000s      0.000w      8 calls
JK: JK                              :      0.000u      0.000s      0.000w      8 calls
PK computes JK                      :      0.000u      0.000s      0.000w      8 calls
JK: AO2USO                          :      0.000u      0.000s      0.000w      8 calls
HF: Form F                          :      0.000u      0.000s      0.000w      8 calls
HF: Form D                          :      0.000u      0.000s      0.000w      8 calls
HF: DIIS                            :      0.000u      0.000s      0.006w      7 calls
HF: Form C                          :      0.017u      0.000s      0.001w      7 calls

--------------------------------------------------------------------------------------
Total PK formation time             :      0.017u      0.000s      0.004w      1 calls
| Libint2ERI::Libint2ERI            :      0.017u      0.000s      0.001w      2 calls
HF: Form core H                     :      0.000u      0.000s      0.000w      1 calls
HF: Form S/X                        :      0.000u      0.000s      0.000w      1 calls
HF: Guess                           :      0.033u      0.000s      0.023w      1 calls
| SAD Guess                         :      0.033u      0.000s      0.021w      1 calls
HF: Form G                          :      0.000u      0.000s      0.000w      8 calls
| JK: D                             :      0.000u      0.000s      0.000w      8 calls
| JK: USO2AO                        :      0.000u      0.000s      0.000w      8 calls
| JK: JK                            :      0.000u      0.000s      0.000w      8 calls
| | PK computes JK                  :      0.000u      0.000s      0.000w      8 calls
| JK: AO2USO                        :      0.000u      0.000s      0.000w      8 calls
HF: Form F                          :      0.000u      0.000s      0.000w      8 calls
HF: Form D                          :      0.000u      0.000s      0.000w      8 calls
HF: DIIS                            :      0.000u      0.000s      0.006w      7 calls
HF: Form C                          :      0.017u      0.000s      0.001w      7 calls

**************************************************************************************

Host: nlk36701-OptiPlex-7060

Timers On : Mon Jan 10 11:02:05 2022
Timers Off: Mon Jan 10 11:02:05 2022

Wall Time:        0.36 seconds

                                                       Time (seconds)
Module                                       User      System        Wall        Calls
Total PK formation time             :      0.017u      0.000s      0.004w      1 calls
Libint2ERI::Libint2ERI              :      0.000u      0.000s      0.001w      2 calls
HF: Form core H                     :      0.000u      0.000s      0.000w      1 calls
HF: Form S/X                        :      0.000u      0.000s      0.000w      1 calls
HF: Guess                           :      0.033u      0.000s      0.023w      1 calls
SAD Guess                           :      0.033u      0.000s      0.021w      1 calls
HF: Form G                          :      0.017u      0.000s      0.000w      8 calls
JK: D                               :      0.000u      0.000s      0.000w      8 calls
JK: USO2AO                          :      0.000u      0.000s      0.000w      8 calls
JK: JK                              :      0.017u      0.000s      0.000w      8 calls
PK computes JK                      :      0.000u      0.000s      0.000w      8 calls
JK: AO2USO                          :      0.000u      0.000s      0.000w      8 calls
HF: Form F                          :      0.000u      0.000s      0.000w      8 calls
HF: Form D                          :      0.000u      0.000s      0.000w      8 calls
HF: DIIS                            :      0.017u      0.000s      0.006w      7 calls
HF: Form C                          :      0.000u      0.000s      0.001w      7 calls

--------------------------------------------------------------------------------------
Total PK formation time             :      0.017u      0.000s      0.004w      1 calls
| Libint2ERI::Libint2ERI            :      0.000u      0.000s      0.001w      2 calls
HF: Form core H                     :      0.000u      0.000s      0.000w      1 calls
HF: Form S/X                        :      0.000u      0.000s      0.000w      1 calls
HF: Guess                           :      0.033u      0.000s      0.023w      1 calls
| SAD Guess                         :      0.033u      0.000s      0.021w      1 calls
HF: Form G                          :      0.017u      0.000s      0.000w      8 calls
| JK: D                             :      0.000u      0.000s      0.000w      8 calls
| JK: USO2AO                        :      0.000u      0.000s      0.000w      8 calls
| JK: JK                            :      0.017u      0.000s      0.000w      8 calls
| | PK computes JK                  :      0.000u      0.000s      0.000w      8 calls
| JK: AO2USO                        :      0.000u      0.000s      0.000w      8 calls
HF: Form F                          :      0.000u      0.000s      0.000w      8 calls
HF: Form D                          :      0.000u      0.000s      0.000w      8 calls
HF: DIIS                            :      0.017u      0.000s      0.006w      7 calls
HF: Form C                          :      0.000u      0.000s      0.001w      7 calls

**************************************************************************************

Host: nlk36701-OptiPlex-7060

Timers On : Mon Jan 10 11:02:50 2022
Timers Off: Mon Jan 10 11:02:50 2022

Wall Time:        0.36 seconds

                                                       Time (seconds)
Module                                       User      System        Wall        Calls
Total PK formation time             :      0.017u      0.000s      0.004w      1 calls
Libint2ERI::Libint2ERI              :      0.000u      0.000s      0.001w      2 calls
HF: Form core H                     :      0.000u      0.000s      0.000w      1 calls
HF: Form S/X                        :      0.000u      0.000s      0.000w      1 calls
HF: Guess                           :      0.017u      0.017s      0.023w      1 calls
SAD Guess                           :      0.017u      0.017s      0.022w      1 calls
HF: Form G                          :      0.000u      0.000s      0.000w      8 calls
JK: D                               :      0.000u      0.000s      0.000w      8 calls
JK: USO2AO                          :      0.000u      0.000s      0.000w      8 calls
JK: JK                              :      0.000u      0.000s      0.000w      8 calls
PK computes JK                      :      0.000u      0.000s      0.000w      8 calls
JK: AO2USO                          :      0.000u      0.000s      0.000w      8 calls
HF: Form F                          :      0.000u      0.000s      0.000w      8 calls
HF: Form D                          :      0.000u      0.000s      0.000w      8 calls
HF: DIIS                            :      0.000u      0.000s      0.007w      7 calls
HF: Form C                          :      0.000u      0.000s      0.001w      7 calls

--------------------------------------------------------------------------------------
Total PK formation time             :      0.017u      0.000s      0.004w      1 calls
| Libint2ERI::Libint2ERI            :      0.000u      0.000s      0.001w      2 calls
HF: Form core H                     :      0.000u      0.000s      0.000w      1 calls
HF: Form S/X                        :      0.000u      0.000s      0.000w      1 calls
HF: Guess                           :      0.017u      0.017s      0.023w      1 calls
| SAD Guess                         :      0.017u      0.017s      0.022w      1 calls
HF: Form G                          :      0.000u      0.000s      0.000w      8 calls
| JK: D                             :      0.000u      0.000s      0.000w      8 calls
| JK: USO2AO                        :      0.000u      0.000s      0.000w      8 calls
| JK: JK                            :      0.000u      0.000s      0.000w      8 calls
| | PK computes JK                  :      0.000u      0.000s      0.000w      8 calls
| JK: AO2USO                        :      0.000u      0.000s      0.000w      8 calls
HF: Form F                          :      0.000u      0.000s      0.000w      8 calls
HF: Form D                          :      0.000u      0.000s      0.000w      8 calls
HF: DIIS                            :      0.000u      0.000s      0.007w      7 calls
HF: Form C                          :      0.000u      0.000s      0.001w      7 calls

**************************************************************************************

Host: nlk36701-OptiPlex-7060

Timers On : Mon Jan 10 11:03:09 2022
Timers Off: Mon Jan 10 11:03:09 2022

Wall Time:        0.36 seconds

                                                       Time (seconds)
Module                                       User      System        Wall        Calls
Total PK formation time             :      0.000u      0.000s      0.004w      1 calls
Libint2ERI::Libint2ERI              :      0.000u      0.000s      0.001w      2 calls
HF: Form core H                     :      0.000u      0.000s      0.000w      1 calls
HF: Form S/X                        :      0.000u      0.000s      0.000w      1 calls
HF: Guess                           :      0.033u      0.000s      0.022w      1 calls
SAD Guess                           :      0.033u      0.000s      0.021w      1 calls
HF: Form G                          :      0.000u      0.000s      0.000w      8 calls
JK: D                               :      0.000u      0.000s      0.000w      8 calls
JK: USO2AO                          :      0.000u      0.000s      0.000w      8 calls
JK: JK                              :      0.000u      0.000s      0.000w      8 calls
PK computes JK                      :      0.000u      0.000s      0.000w      8 calls
JK: AO2USO                          :      0.000u      0.000s      0.000w      8 calls
HF: Form F                          :      0.000u      0.000s      0.000w      8 calls
HF: Form D                          :      0.000u      0.000s      0.000w      8 calls
HF: DIIS                            :      0.000u      0.000s      0.006w      7 calls
HF: Form C                          :      0.000u      0.000s      0.001w      7 calls

--------------------------------------------------------------------------------------
Total PK formation time             :      0.000u      0.000s      0.004w      1 calls
| Libint2ERI::Libint2ERI            :      0.000u      0.000s      0.001w      2 calls
HF: Form core H                     :      0.000u      0.000s      0.000w      1 calls
HF: Form S/X                        :      0.000u      0.000s      0.000w      1 calls
HF: Guess                           :      0.033u      0.000s      0.022w      1 calls
| SAD Guess                         :      0.033u      0.000s      0.021w      1 calls
HF: Form G                          :      0.000u      0.000s      0.000w      8 calls
| JK: D                             :      0.000u      0.000s      0.000w      8 calls
| JK: USO2AO                        :      0.000u      0.000s      0.000w      8 calls
| JK: JK                            :      0.000u      0.000s      0.000w      8 calls
| | PK computes JK                  :      0.000u      0.000s      0.000w      8 calls
| JK: AO2USO                        :      0.000u      0.000s      0.000w      8 calls
HF: Form F                          :      0.000u      0.000s      0.000w      8 calls
HF: Form D                          :      0.000u      0.000s      0.000w      8 calls
HF: DIIS                            :      0.000u      0.000s      0.006w      7 calls
HF: Form C                          :      0.000u      0.000s      0.001w      7 calls

**************************************************************************************

Host: nlk36701-OptiPlex-7060

Timers On : Mon Jan 10 11:06:29 2022
Timers Off: Mon Jan 10 11:06:29 2022

Wall Time:        0.37 seconds

                                                       Time (seconds)
Module                                       User      System        Wall        Calls
Total PK formation time             :      0.017u      0.000s      0.004w      1 calls
Libint2ERI::Libint2ERI              :      0.000u      0.000s      0.001w      2 calls
HF: Form core H                     :      0.000u      0.000s      0.000w      1 calls
HF: Form S/X                        :      0.000u      0.000s      0.000w      1 calls
HF: Guess                           :      0.033u      0.000s      0.023w      1 calls
SAD Guess                           :      0.033u      0.000s      0.022w      1 calls
HF: Form G                          :      0.000u      0.000s      0.000w      8 calls
JK: D                               :      0.000u      0.000s      0.000w      8 calls
JK: USO2AO                          :      0.000u      0.000s      0.000w      8 calls
JK: JK                              :      0.000u      0.000s      0.000w      8 calls
PK computes JK                      :      0.000u      0.000s      0.000w      8 calls
JK: AO2USO                          :      0.000u      0.000s      0.000w      8 calls
HF: Form F                          :      0.000u      0.000s      0.000w      8 calls
HF: Form D                          :      0.000u      0.000s      0.000w      8 calls
HF: DIIS                            :      0.017u      0.000s      0.006w      7 calls
HF: Form C                          :      0.000u      0.000s      0.001w      7 calls

--------------------------------------------------------------------------------------
Total PK formation time             :      0.017u      0.000s      0.004w      1 calls
| Libint2ERI::Libint2ERI            :      0.000u      0.000s      0.001w      2 calls
HF: Form core H                     :      0.000u      0.000s      0.000w      1 calls
HF: Form S/X                        :      0.000u      0.000s      0.000w      1 calls
HF: Guess                           :      0.033u      0.000s      0.023w      1 calls
| SAD Guess                         :      0.033u      0.000s      0.022w      1 calls
HF: Form G                          :      0.000u      0.000s      0.000w      8 calls
| JK: D                             :      0.000u      0.000s      0.000w      8 calls
| JK: USO2AO                        :      0.000u      0.000s      0.000w      8 calls
| JK: JK                            :      0.000u      0.000s      0.000w      8 calls
| | PK computes JK                  :      0.000u      0.000s      0.000w      8 calls
| JK: AO2USO                        :      0.000u      0.000s      0.000w      8 calls
HF: Form F                          :      0.000u      0.000s      0.000w      8 calls
HF: Form D                          :      0.000u      0.000s      0.000w      8 calls
HF: DIIS                            :      0.017u      0.000s      0.006w      7 calls
HF: Form C                          :      0.000u      0.000s      0.001w      7 calls

**************************************************************************************

Host: nlk36701-OptiPlex-7060

Timers On : Mon Jan 10 11:15:06 2022
Timers Off: Mon Jan 10 11:15:07 2022

Wall Time:        0.37 seconds

                                                       Time (seconds)
Module                                       User      System        Wall        Calls
Total PK formation time             :      0.000u      0.000s      0.004w      1 calls
Libint2ERI::Libint2ERI              :      0.000u      0.000s      0.001w      2 calls
HF: Form core H                     :      0.000u      0.017s      0.000w      1 calls
HF: Form S/X                        :      0.000u      0.000s      0.000w      1 calls
HF: Guess                           :      0.033u      0.000s      0.022w      1 calls
SAD Guess                           :      0.033u      0.000s      0.021w      1 calls
HF: Form G                          :      0.000u      0.000s      0.000w      8 calls
JK: D                               :      0.000u      0.000s      0.000w      8 calls
JK: USO2AO                          :      0.000u      0.000s      0.000w      8 calls
JK: JK                              :      0.000u      0.000s      0.000w      8 calls
PK computes JK                      :      0.000u      0.000s      0.000w      8 calls
JK: AO2USO                          :      0.000u      0.000s      0.000w      8 calls
HF: Form F                          :      0.000u      0.000s      0.000w      8 calls
HF: Form D                          :      0.000u      0.000s      0.000w      8 calls
HF: DIIS                            :      0.000u      0.000s      0.006w      7 calls
HF: Form C                          :      0.000u      0.000s      0.001w      7 calls

--------------------------------------------------------------------------------------
Total PK formation time             :      0.000u      0.000s      0.004w      1 calls
| Libint2ERI::Libint2ERI            :      0.000u      0.000s      0.001w      2 calls
HF: Form core H                     :      0.000u      0.017s      0.000w      1 calls
HF: Form S/X                        :      0.000u      0.000s      0.000w      1 calls
HF: Guess                           :      0.033u      0.000s      0.022w      1 calls
| SAD Guess                         :      0.033u      0.000s      0.021w      1 calls
HF: Form G                          :      0.000u      0.000s      0.000w      8 calls
| JK: D                             :      0.000u      0.000s      0.000w      8 calls
| JK: USO2AO                        :      0.000u      0.000s      0.000w      8 calls
| JK: JK                            :      0.000u      0.000s      0.000w      8 calls
| | PK computes JK                  :      0.000u      0.000s      0.000w      8 calls
| JK: AO2USO                        :      0.000u      0.000s      0.000w      8 calls
HF: Form F                          :      0.000u      0.000s      0.000w      8 calls
HF: Form D                          :      0.000u      0.000s      0.000w      8 calls
HF: DIIS                            :      0.000u      0.000s      0.006w      7 calls
HF: Form C                          :      0.000u      0.000s      0.001w      7 calls

**************************************************************************************

Host: nlk36701-OptiPlex-7060

Timers On : Mon Jan 10 11:17:29 2022
Timers Off: Mon Jan 10 11:17:29 2022

Wall Time:        0.36 seconds

                                                       Time (seconds)
Module                                       User      System        Wall        Calls
Total PK formation time             :      0.017u      0.000s      0.004w      1 calls
Libint2ERI::Libint2ERI              :      0.000u      0.000s      0.001w      3 calls
HF: Form core H                     :      0.000u      0.000s      0.000w      1 calls
HF: Form S/X                        :      0.000u      0.000s      0.000w      1 calls
HF: Guess                           :      0.017u      0.017s      0.023w      1 calls
SAD Guess                           :      0.017u      0.017s      0.021w      1 calls
HF: Form G                          :      0.000u      0.000s      0.000w      8 calls
JK: D                               :      0.000u      0.000s      0.000w      8 calls
JK: USO2AO                          :      0.000u      0.000s      0.000w      8 calls
JK: JK                              :      0.000u      0.000s      0.000w      8 calls
PK computes JK                      :      0.000u      0.000s      0.000w      8 calls
JK: AO2USO                          :      0.000u      0.000s      0.000w      8 calls
HF: Form F                          :      0.000u      0.000s      0.000w      8 calls
HF: Form D                          :      0.000u      0.000s      0.000w      8 calls
HF: DIIS                            :      0.017u      0.000s      0.006w      7 calls
HF: Form C                          :      0.017u      0.000s      0.001w      7 calls

--------------------------------------------------------------------------------------
Total PK formation time             :      0.017u      0.000s      0.004w      1 calls
| Libint2ERI::Libint2ERI            :      0.000u      0.000s      0.001w      2 calls
HF: Form core H                     :      0.000u      0.000s      0.000w      1 calls
HF: Form S/X                        :      0.000u      0.000s      0.000w      1 calls
HF: Guess                           :      0.017u      0.017s      0.023w      1 calls
| SAD Guess                         :      0.017u      0.017s      0.021w      1 calls
HF: Form G                          :      0.000u      0.000s      0.000w      8 calls
| JK: D                             :      0.000u      0.000s      0.000w      8 calls
| JK: USO2AO                        :      0.000u      0.000s      0.000w      8 calls
| JK: JK                            :      0.000u      0.000s      0.000w      8 calls
| | PK computes JK                  :      0.000u      0.000s      0.000w      8 calls
| JK: AO2USO                        :      0.000u      0.000s      0.000w      8 calls
HF: Form F                          :      0.000u      0.000s      0.000w      8 calls
HF: Form D                          :      0.000u      0.000s      0.000w      8 calls
HF: DIIS                            :      0.017u      0.000s      0.006w      7 calls
HF: Form C                          :      0.017u      0.000s      0.001w      7 calls
Libint2ERI::Libint2ERI              :      0.000u      0.000s      0.000w      1 calls

**************************************************************************************

Host: nlk36701-OptiPlex-7060

Timers On : Mon Jan 10 11:17:43 2022
Timers Off: Mon Jan 10 11:17:43 2022

Wall Time:        0.37 seconds

                                                       Time (seconds)
Module                                       User      System        Wall        Calls
Total PK formation time             :      0.000u      0.000s      0.004w      1 calls
Libint2ERI::Libint2ERI              :      0.000u      0.000s      0.001w      3 calls
HF: Form core H                     :      0.000u      0.000s      0.000w      1 calls
HF: Form S/X                        :      0.000u      0.000s      0.000w      1 calls
HF: Guess                           :      0.033u      0.000s      0.022w      1 calls
SAD Guess                           :      0.033u      0.000s      0.021w      1 calls
HF: Form G                          :      0.000u      0.000s      0.000w      8 calls
JK: D                               :      0.000u      0.000s      0.000w      8 calls
JK: USO2AO                          :      0.000u      0.000s      0.000w      8 calls
JK: JK                              :      0.000u      0.000s      0.000w      8 calls
PK computes JK                      :      0.000u      0.000s      0.000w      8 calls
JK: AO2USO                          :      0.000u      0.000s      0.000w      8 calls
HF: Form F                          :      0.000u      0.000s      0.000w      8 calls
HF: Form D                          :      0.000u      0.000s      0.000w      8 calls
HF: DIIS                            :      0.017u      0.000s      0.007w      7 calls
HF: Form C                          :      0.000u      0.000s      0.001w      7 calls

--------------------------------------------------------------------------------------
Total PK formation time             :      0.000u      0.000s      0.004w      1 calls
| Libint2ERI::Libint2ERI            :      0.000u      0.000s      0.001w      2 calls
HF: Form core H                     :      0.000u      0.000s      0.000w      1 calls
HF: Form S/X                        :      0.000u      0.000s      0.000w      1 calls
HF: Guess                           :      0.033u      0.000s      0.022w      1 calls
| SAD Guess                         :      0.033u      0.000s      0.021w      1 calls
HF: Form G                          :      0.000u      0.000s      0.000w      8 calls
| JK: D                             :      0.000u      0.000s      0.000w      8 calls
| JK: USO2AO                        :      0.000u      0.000s      0.000w      8 calls
| JK: JK                            :      0.000u      0.000s      0.000w      8 calls
| | PK computes JK                  :      0.000u      0.000s      0.000w      8 calls
| JK: AO2USO                        :      0.000u      0.000s      0.000w      8 calls
HF: Form F                          :      0.000u      0.000s      0.000w      8 calls
HF: Form D                          :      0.000u      0.000s      0.000w      8 calls
HF: DIIS                            :      0.017u      0.000s      0.007w      7 calls
HF: Form C                          :      0.000u      0.000s      0.001w      7 calls
Libint2ERI::Libint2ERI              :      0.000u      0.000s      0.000w      1 calls

**************************************************************************************

Host: nlk36701-OptiPlex-7060

Timers On : Mon Jan 10 11:18:05 2022
Timers Off: Mon Jan 10 11:18:05 2022

Wall Time:        0.37 seconds

                                                       Time (seconds)
Module                                       User      System        Wall        Calls
Total PK formation time             :      0.000u      0.000s      0.004w      1 calls
Libint2ERI::Libint2ERI              :      0.000u      0.000s      0.001w      3 calls
HF: Form core H                     :      0.000u      0.000s      0.000w      1 calls
HF: Form S/X                        :      0.000u      0.000s      0.000w      1 calls
HF: Guess                           :      0.050u      0.000s      0.022w      1 calls
SAD Guess                           :      0.050u      0.000s      0.021w      1 calls
HF: Form G                          :      0.000u      0.000s      0.000w      8 calls
JK: D                               :      0.000u      0.000s      0.000w      8 calls
JK: USO2AO                          :      0.000u      0.000s      0.000w      8 calls
JK: JK                              :      0.000u      0.000s      0.000w      8 calls
PK computes JK                      :      0.000u      0.000s      0.000w      8 calls
JK: AO2USO                          :      0.000u      0.000s      0.000w      8 calls
HF: Form F                          :      0.000u      0.000s      0.000w      8 calls
HF: Form D                          :      0.000u      0.000s      0.000w      8 calls
HF: DIIS                            :      0.017u      0.000s      0.006w      7 calls
HF: Form C                          :      0.000u      0.000s      0.001w      7 calls

--------------------------------------------------------------------------------------
Total PK formation time             :      0.000u      0.000s      0.004w      1 calls
| Libint2ERI::Libint2ERI            :      0.000u      0.000s      0.001w      2 calls
HF: Form core H                     :      0.000u      0.000s      0.000w      1 calls
HF: Form S/X                        :      0.000u      0.000s      0.000w      1 calls
HF: Guess                           :      0.050u      0.000s      0.022w      1 calls
| SAD Guess                         :      0.050u      0.000s      0.021w      1 calls
HF: Form G                          :      0.000u      0.000s      0.000w      8 calls
| JK: D                             :      0.000u      0.000s      0.000w      8 calls
| JK: USO2AO                        :      0.000u      0.000s      0.000w      8 calls
| JK: JK                            :      0.000u      0.000s      0.000w      8 calls
| | PK computes JK                  :      0.000u      0.000s      0.000w      8 calls
| JK: AO2USO                        :      0.000u      0.000s      0.000w      8 calls
HF: Form F                          :      0.000u      0.000s      0.000w      8 calls
HF: Form D                          :      0.000u      0.000s      0.000w      8 calls
HF: DIIS                            :      0.017u      0.000s      0.006w      7 calls
HF: Form C                          :      0.000u      0.000s      0.001w      7 calls
Libint2ERI::Libint2ERI              :      0.000u      0.000s      0.000w      1 calls

**************************************************************************************

Host: nlk36701-OptiPlex-7060

Timers On : Mon Jan 10 11:43:33 2022
Timers Off: Mon Jan 10 11:43:34 2022

Wall Time:        0.37 seconds

                                                       Time (seconds)
Module                                       User      System        Wall        Calls
Total PK formation time             :      0.000u      0.000s      0.004w      1 calls
Libint2ERI::Libint2ERI              :      0.000u      0.000s      0.001w      2 calls
HF: Form core H                     :      0.000u      0.000s      0.000w      1 calls
HF: Form S/X                        :      0.000u      0.000s      0.000w      1 calls
HF: Guess                           :      0.033u      0.017s      0.023w      1 calls
SAD Guess                           :      0.033u      0.017s      0.022w      1 calls
HF: Form G                          :      0.000u      0.000s      0.000w      8 calls
JK: D                               :      0.000u      0.000s      0.000w      8 calls
JK: USO2AO                          :      0.000u      0.000s      0.000w      8 calls
JK: JK                              :      0.000u      0.000s      0.000w      8 calls
PK computes JK                      :      0.000u      0.000s      0.000w      8 calls
JK: AO2USO                          :      0.000u      0.000s      0.000w      8 calls
HF: Form F                          :      0.000u      0.000s      0.000w      8 calls
HF: Form D                          :      0.000u      0.000s      0.000w      8 calls
HF: DIIS                            :      0.000u      0.000s      0.007w      7 calls
HF: Form C                          :      0.000u      0.000s      0.001w      7 calls

--------------------------------------------------------------------------------------
Total PK formation time             :      0.000u      0.000s      0.004w      1 calls
| Libint2ERI::Libint2ERI            :      0.000u      0.000s      0.001w      2 calls
HF: Form core H                     :      0.000u      0.000s      0.000w      1 calls
HF: Form S/X                        :      0.000u      0.000s      0.000w      1 calls
HF: Guess                           :      0.033u      0.017s      0.023w      1 calls
| SAD Guess                         :      0.033u      0.017s      0.022w      1 calls
HF: Form G                          :      0.000u      0.000s      0.000w      8 calls
| JK: D                             :      0.000u      0.000s      0.000w      8 calls
| JK: USO2AO                        :      0.000u      0.000s      0.000w      8 calls
| JK: JK                            :      0.000u      0.000s      0.000w      8 calls
| | PK computes JK                  :      0.000u      0.000s      0.000w      8 calls
| JK: AO2USO                        :      0.000u      0.000s      0.000w      8 calls
HF: Form F                          :      0.000u      0.000s      0.000w      8 calls
HF: Form D                          :      0.000u      0.000s      0.000w      8 calls
HF: DIIS                            :      0.000u      0.000s      0.007w      7 calls
HF: Form C                          :      0.000u      0.000s      0.001w      7 calls

**************************************************************************************

Host: nlk36701-OptiPlex-7060

Timers On : Mon Jan 10 11:44:46 2022
Timers Off: Mon Jan 10 11:44:47 2022

Wall Time:        0.37 seconds

                                                       Time (seconds)
Module                                       User      System        Wall        Calls
Total PK formation time             :      0.000u      0.000s      0.004w      1 calls
Libint2ERI::Libint2ERI              :      0.000u      0.000s      0.001w      2 calls
HF: Form core H                     :      0.000u      0.000s      0.000w      1 calls
HF: Form S/X                        :      0.000u      0.000s      0.000w      1 calls
HF: Guess                           :      0.033u      0.017s      0.022w      1 calls
SAD Guess                           :      0.017u      0.017s      0.021w      1 calls
HF: Form G                          :      0.000u      0.000s      0.000w      8 calls
JK: D                               :      0.000u      0.000s      0.000w      8 calls
JK: USO2AO                          :      0.000u      0.000s      0.000w      8 calls
JK: JK                              :      0.000u      0.000s      0.000w      8 calls
PK computes JK                      :      0.000u      0.000s      0.000w      8 calls
JK: AO2USO                          :      0.000u      0.000s      0.000w      8 calls
HF: Form F                          :      0.000u      0.000s      0.000w      8 calls
HF: Form D                          :      0.000u      0.000s      0.000w      8 calls
HF: DIIS                            :      0.000u      0.000s      0.006w      7 calls
HF: Form C                          :      0.000u      0.000s      0.001w      7 calls

--------------------------------------------------------------------------------------
Total PK formation time             :      0.000u      0.000s      0.004w      1 calls
| Libint2ERI::Libint2ERI            :      0.000u      0.000s      0.001w      2 calls
HF: Form core H                     :      0.000u      0.000s      0.000w      1 calls
HF: Form S/X                        :      0.000u      0.000s      0.000w      1 calls
HF: Guess                           :      0.033u      0.017s      0.022w      1 calls
| SAD Guess                         :      0.017u      0.017s      0.021w      1 calls
HF: Form G                          :      0.000u      0.000s      0.000w      8 calls
| JK: D                             :      0.000u      0.000s      0.000w      8 calls
| JK: USO2AO                        :      0.000u      0.000s      0.000w      8 calls
| JK: JK                            :      0.000u      0.000s      0.000w      8 calls
| | PK computes JK                  :      0.000u      0.000s      0.000w      8 calls
| JK: AO2USO                        :      0.000u      0.000s      0.000w      8 calls
HF: Form F                          :      0.000u      0.000s      0.000w      8 calls
HF: Form D                          :      0.000u      0.000s      0.000w      8 calls
HF: DIIS                            :      0.000u      0.000s      0.006w      7 calls
HF: Form C                          :      0.000u      0.000s      0.001w      7 calls

**************************************************************************************

Host: nlk36701-OptiPlex-7060

Timers On : Mon Jan 10 12:43:33 2022
Timers Off: Mon Jan 10 12:43:33 2022

Wall Time:        0.36 seconds

                                                       Time (seconds)
Module                                       User      System        Wall        Calls
Total PK formation time             :      0.000u      0.000s      0.004w      1 calls
Libint2ERI::Libint2ERI              :      0.000u      0.000s      0.001w      2 calls
HF: Form core H                     :      0.000u      0.000s      0.000w      1 calls
HF: Form S/X                        :      0.000u      0.000s      0.000w      1 calls
HF: Guess                           :      0.033u      0.000s      0.022w      1 calls
SAD Guess                           :      0.033u      0.000s      0.021w      1 calls
HF: Form G                          :      0.000u      0.000s      0.000w      8 calls
JK: D                               :      0.000u      0.000s      0.000w      8 calls
JK: USO2AO                          :      0.000u      0.000s      0.000w      8 calls
JK: JK                              :      0.000u      0.000s      0.000w      8 calls
PK computes JK                      :      0.000u      0.000s      0.000w      8 calls
JK: AO2USO                          :      0.000u      0.000s      0.000w      8 calls
HF: Form F                          :      0.000u      0.000s      0.000w      8 calls
HF: Form D                          :      0.000u      0.000s      0.000w      8 calls
HF: DIIS                            :      0.000u      0.000s      0.006w      7 calls
HF: Form C                          :      0.000u      0.000s      0.001w      7 calls

--------------------------------------------------------------------------------------
Total PK formation time             :      0.000u      0.000s      0.004w      1 calls
| Libint2ERI::Libint2ERI            :      0.000u      0.000s      0.001w      2 calls
HF: Form core H                     :      0.000u      0.000s      0.000w      1 calls
HF: Form S/X                        :      0.000u      0.000s      0.000w      1 calls
HF: Guess                           :      0.033u      0.000s      0.022w      1 calls
| SAD Guess                         :      0.033u      0.000s      0.021w      1 calls
HF: Form G                          :      0.000u      0.000s      0.000w      8 calls
| JK: D                             :      0.000u      0.000s      0.000w      8 calls
| JK: USO2AO                        :      0.000u      0.000s      0.000w      8 calls
| JK: JK                            :      0.000u      0.000s      0.000w      8 calls
| | PK computes JK                  :      0.000u      0.000s      0.000w      8 calls
| JK: AO2USO                        :      0.000u      0.000s      0.000w      8 calls
HF: Form F                          :      0.000u      0.000s      0.000w      8 calls
HF: Form D                          :      0.000u      0.000s      0.000w      8 calls
HF: DIIS                            :      0.000u      0.000s      0.006w      7 calls
HF: Form C                          :      0.000u      0.000s      0.001w      7 calls

**************************************************************************************

Host: nlk36701-OptiPlex-7060

Timers On : Mon Jan 10 12:43:45 2022
Timers Off: Mon Jan 10 12:43:45 2022

Wall Time:        0.36 seconds

                                                       Time (seconds)
Module                                       User      System        Wall        Calls
Total PK formation time             :      0.017u      0.000s      0.004w      1 calls
Libint2ERI::Libint2ERI              :      0.017u      0.000s      0.001w      2 calls
HF: Form core H                     :      0.000u      0.000s      0.000w      1 calls
HF: Form S/X                        :      0.000u      0.000s      0.000w      1 calls
HF: Guess                           :      0.017u      0.000s      0.022w      1 calls
SAD Guess                           :      0.017u      0.000s      0.021w      1 calls
HF: Form G                          :      0.000u      0.000s      0.000w      8 calls
JK: D                               :      0.000u      0.000s      0.000w      8 calls
JK: USO2AO                          :      0.000u      0.000s      0.000w      8 calls
JK: JK                              :      0.000u      0.000s      0.000w      8 calls
PK computes JK                      :      0.000u      0.000s      0.000w      8 calls
JK: AO2USO                          :      0.000u      0.000s      0.000w      8 calls
HF: Form F                          :      0.000u      0.000s      0.000w      8 calls
HF: Form D                          :      0.000u      0.000s      0.000w      8 calls
HF: DIIS                            :      0.033u      0.000s      0.006w      7 calls
HF: Form C                          :      0.000u      0.000s      0.001w      7 calls

--------------------------------------------------------------------------------------
Total PK formation time             :      0.017u      0.000s      0.004w      1 calls
| Libint2ERI::Libint2ERI            :      0.017u      0.000s      0.001w      2 calls
HF: Form core H                     :      0.000u      0.000s      0.000w      1 calls
HF: Form S/X                        :      0.000u      0.000s      0.000w      1 calls
HF: Guess                           :      0.017u      0.000s      0.022w      1 calls
| SAD Guess                         :      0.017u      0.000s      0.021w      1 calls
HF: Form G                          :      0.000u      0.000s      0.000w      8 calls
| JK: D                             :      0.000u      0.000s      0.000w      8 calls
| JK: USO2AO                        :      0.000u      0.000s      0.000w      8 calls
| JK: JK                            :      0.000u      0.000s      0.000w      8 calls
| | PK computes JK                  :      0.000u      0.000s      0.000w      8 calls
| JK: AO2USO                        :      0.000u      0.000s      0.000w      8 calls
HF: Form F                          :      0.000u      0.000s      0.000w      8 calls
HF: Form D                          :      0.000u      0.000s      0.000w      8 calls
HF: DIIS                            :      0.033u      0.000s      0.006w      7 calls
HF: Form C                          :      0.000u      0.000s      0.001w      7 calls

**************************************************************************************

Host: nlk36701-OptiPlex-7060

Timers On : Mon Jan 10 12:44:09 2022
Timers Off: Mon Jan 10 12:44:09 2022

Wall Time:        0.36 seconds

                                                       Time (seconds)
Module                                       User      System        Wall        Calls
Total PK formation time             :      0.000u      0.000s      0.004w      1 calls
Libint2ERI::Libint2ERI              :      0.000u      0.000s      0.001w      2 calls
HF: Form core H                     :      0.000u      0.000s      0.000w      1 calls
HF: Form S/X                        :      0.000u      0.000s      0.000w      1 calls
HF: Guess                           :      0.033u      0.017s      0.023w      1 calls
SAD Guess                           :      0.017u      0.017s      0.021w      1 calls
HF: Form G                          :      0.000u      0.000s      0.000w      8 calls
JK: D                               :      0.000u      0.000s      0.000w      8 calls
JK: USO2AO                          :      0.000u      0.000s      0.000w      8 calls
JK: JK                              :      0.000u      0.000s      0.000w      8 calls
PK computes JK                      :      0.000u      0.000s      0.000w      8 calls
JK: AO2USO                          :      0.000u      0.000s      0.000w      8 calls
HF: Form F                          :      0.000u      0.000s      0.000w      8 calls
HF: Form D                          :      0.000u      0.000s      0.000w      8 calls
HF: DIIS                            :      0.017u      0.000s      0.006w      7 calls
HF: Form C                          :      0.000u      0.000s      0.001w      7 calls

--------------------------------------------------------------------------------------
Total PK formation time             :      0.000u      0.000s      0.004w      1 calls
| Libint2ERI::Libint2ERI            :      0.000u      0.000s      0.001w      2 calls
HF: Form core H                     :      0.000u      0.000s      0.000w      1 calls
HF: Form S/X                        :      0.000u      0.000s      0.000w      1 calls
HF: Guess                           :      0.033u      0.017s      0.023w      1 calls
| SAD Guess                         :      0.017u      0.017s      0.021w      1 calls
HF: Form G                          :      0.000u      0.000s      0.000w      8 calls
| JK: D                             :      0.000u      0.000s      0.000w      8 calls
| JK: USO2AO                        :      0.000u      0.000s      0.000w      8 calls
| JK: JK                            :      0.000u      0.000s      0.000w      8 calls
| | PK computes JK                  :      0.000u      0.000s      0.000w      8 calls
| JK: AO2USO                        :      0.000u      0.000s      0.000w      8 calls
HF: Form F                          :      0.000u      0.000s      0.000w      8 calls
HF: Form D                          :      0.000u      0.000s      0.000w      8 calls
HF: DIIS                            :      0.017u      0.000s      0.006w      7 calls
HF: Form C                          :      0.000u      0.000s      0.001w      7 calls

**************************************************************************************

Host: nlk36701-OptiPlex-7060

Timers On : Mon Jan 10 12:45:51 2022
Timers Off: Mon Jan 10 12:45:52 2022

Wall Time:        0.36 seconds

                                                       Time (seconds)
Module                                       User      System        Wall        Calls
Total PK formation time             :      0.000u      0.000s      0.004w      1 calls
Libint2ERI::Libint2ERI              :      0.000u      0.000s      0.001w      2 calls
HF: Form core H                     :      0.000u      0.000s      0.000w      1 calls
HF: Form S/X                        :      0.000u      0.000s      0.000w      1 calls
HF: Guess                           :      0.033u      0.017s      0.023w      1 calls
SAD Guess                           :      0.033u      0.017s      0.022w      1 calls
HF: Form G                          :      0.000u      0.000s      0.000w      8 calls
JK: D                               :      0.000u      0.000s      0.000w      8 calls
JK: USO2AO                          :      0.000u      0.000s      0.000w      8 calls
JK: JK                              :      0.000u      0.000s      0.000w      8 calls
PK computes JK                      :      0.000u      0.000s      0.000w      8 calls
JK: AO2USO                          :      0.000u      0.000s      0.000w      8 calls
HF: Form F                          :      0.000u      0.000s      0.000w      8 calls
HF: Form D                          :      0.000u      0.000s      0.000w      8 calls
HF: DIIS                            :      0.017u      0.000s      0.006w      7 calls
HF: Form C                          :      0.000u      0.000s      0.001w      7 calls

--------------------------------------------------------------------------------------
Total PK formation time             :      0.000u      0.000s      0.004w      1 calls
| Libint2ERI::Libint2ERI            :      0.000u      0.000s      0.001w      2 calls
HF: Form core H                     :      0.000u      0.000s      0.000w      1 calls
HF: Form S/X                        :      0.000u      0.000s      0.000w      1 calls
HF: Guess                           :      0.033u      0.017s      0.023w      1 calls
| SAD Guess                         :      0.033u      0.017s      0.022w      1 calls
HF: Form G                          :      0.000u      0.000s      0.000w      8 calls
| JK: D                             :      0.000u      0.000s      0.000w      8 calls
| JK: USO2AO                        :      0.000u      0.000s      0.000w      8 calls
| JK: JK                            :      0.000u      0.000s      0.000w      8 calls
| | PK computes JK                  :      0.000u      0.000s      0.000w      8 calls
| JK: AO2USO                        :      0.000u      0.000s      0.000w      8 calls
HF: Form F                          :      0.000u      0.000s      0.000w      8 calls
HF: Form D                          :      0.000u      0.000s      0.000w      8 calls
HF: DIIS                            :      0.017u      0.000s      0.006w      7 calls
HF: Form C                          :      0.000u      0.000s      0.001w      7 calls

**************************************************************************************

Host: nlk36701-OptiPlex-7060

Timers On : Mon Jan 10 12:46:13 2022
Timers Off: Mon Jan 10 12:46:13 2022

Wall Time:        0.36 seconds

                                                       Time (seconds)
Module                                       User      System        Wall        Calls
Total PK formation time             :      0.017u      0.000s      0.004w      1 calls
Libint2ERI::Libint2ERI              :      0.000u      0.000s      0.001w      2 calls
HF: Form core H                     :      0.000u      0.000s      0.000w      1 calls
HF: Form S/X                        :      0.000u      0.000s      0.000w      1 calls
HF: Guess                           :      0.017u      0.017s      0.023w      1 calls
SAD Guess                           :      0.017u      0.017s      0.021w      1 calls
HF: Form G                          :      0.000u      0.000s      0.000w      8 calls
JK: D                               :      0.000u      0.000s      0.000w      8 calls
JK: USO2AO                          :      0.000u      0.000s      0.000w      8 calls
JK: JK                              :      0.000u      0.000s      0.000w      8 calls
PK computes JK                      :      0.000u      0.000s      0.000w      8 calls
JK: AO2USO                          :      0.000u      0.000s      0.000w      8 calls
HF: Form F                          :      0.000u      0.000s      0.000w      8 calls
HF: Form D                          :      0.000u      0.000s      0.000w      8 calls
HF: DIIS                            :      0.000u      0.000s      0.007w      7 calls
HF: Form C                          :      0.017u      0.000s      0.001w      7 calls

--------------------------------------------------------------------------------------
Total PK formation time             :      0.017u      0.000s      0.004w      1 calls
| Libint2ERI::Libint2ERI            :      0.000u      0.000s      0.001w      2 calls
HF: Form core H                     :      0.000u      0.000s      0.000w      1 calls
HF: Form S/X                        :      0.000u      0.000s      0.000w      1 calls
HF: Guess                           :      0.017u      0.017s      0.023w      1 calls
| SAD Guess                         :      0.017u      0.017s      0.021w      1 calls
HF: Form G                          :      0.000u      0.000s      0.000w      8 calls
| JK: D                             :      0.000u      0.000s      0.000w      8 calls
| JK: USO2AO                        :      0.000u      0.000s      0.000w      8 calls
| JK: JK                            :      0.000u      0.000s      0.000w      8 calls
| | PK computes JK                  :      0.000u      0.000s      0.000w      8 calls
| JK: AO2USO                        :      0.000u      0.000s      0.000w      8 calls
HF: Form F                          :      0.000u      0.000s      0.000w      8 calls
HF: Form D                          :      0.000u      0.000s      0.000w      8 calls
HF: DIIS                            :      0.000u      0.000s      0.007w      7 calls
HF: Form C                          :      0.017u      0.000s      0.001w      7 calls

**************************************************************************************

Host: nlk36701-OptiPlex-7060

Timers On : Mon Jan 10 12:46:37 2022
Timers Off: Mon Jan 10 12:46:38 2022

Wall Time:        0.37 seconds

                                                       Time (seconds)
Module                                       User      System        Wall        Calls
Total PK formation time             :      0.000u      0.000s      0.004w      1 calls
Libint2ERI::Libint2ERI              :      0.000u      0.000s      0.001w      2 calls
HF: Form core H                     :      0.000u      0.000s      0.000w      1 calls
HF: Form S/X                        :      0.000u      0.000s      0.000w      1 calls
HF: Guess                           :      0.050u      0.000s      0.023w      1 calls
SAD Guess                           :      0.050u      0.000s      0.022w      1 calls
HF: Form G                          :      0.000u      0.000s      0.000w      8 calls
JK: D                               :      0.000u      0.000s      0.000w      8 calls
JK: USO2AO                          :      0.000u      0.000s      0.000w      8 calls
JK: JK                              :      0.000u      0.000s      0.000w      8 calls
PK computes JK                      :      0.000u      0.000s      0.000w      8 calls
JK: AO2USO                          :      0.000u      0.000s      0.000w      8 calls
HF: Form F                          :      0.000u      0.000s      0.000w      8 calls
HF: Form D                          :      0.000u      0.000s      0.000w      8 calls
HF: DIIS                            :      0.017u      0.000s      0.006w      7 calls
HF: Form C                          :      0.000u      0.000s      0.001w      7 calls

--------------------------------------------------------------------------------------
Total PK formation time             :      0.000u      0.000s      0.004w      1 calls
| Libint2ERI::Libint2ERI            :      0.000u      0.000s      0.001w      2 calls
HF: Form core H                     :      0.000u      0.000s      0.000w      1 calls
HF: Form S/X                        :      0.000u      0.000s      0.000w      1 calls
HF: Guess                           :      0.050u      0.000s      0.023w      1 calls
| SAD Guess                         :      0.050u      0.000s      0.022w      1 calls
HF: Form G                          :      0.000u      0.000s      0.000w      8 calls
| JK: D                             :      0.000u      0.000s      0.000w      8 calls
| JK: USO2AO                        :      0.000u      0.000s      0.000w      8 calls
| JK: JK                            :      0.000u      0.000s      0.000w      8 calls
| | PK computes JK                  :      0.000u      0.000s      0.000w      8 calls
| JK: AO2USO                        :      0.000u      0.000s      0.000w      8 calls
HF: Form F                          :      0.000u      0.000s      0.000w      8 calls
HF: Form D                          :      0.000u      0.000s      0.000w      8 calls
HF: DIIS                            :      0.017u      0.000s      0.006w      7 calls
HF: Form C                          :      0.000u      0.000s      0.001w      7 calls

**************************************************************************************

Host: nlk36701-OptiPlex-7060

Timers On : Mon Jan 10 12:47:26 2022
Timers Off: Mon Jan 10 12:47:26 2022

Wall Time:        0.36 seconds

                                                       Time (seconds)
Module                                       User      System        Wall        Calls
Total PK formation time             :      0.017u      0.000s      0.004w      1 calls
Libint2ERI::Libint2ERI              :      0.017u      0.000s      0.001w      2 calls
HF: Form core H                     :      0.000u      0.000s      0.000w      1 calls
HF: Form S/X                        :      0.000u      0.000s      0.000w      1 calls
HF: Guess                           :      0.033u      0.000s      0.023w      1 calls
SAD Guess                           :      0.033u      0.000s      0.021w      1 calls
HF: Form G                          :      0.000u      0.000s      0.000w      8 calls
JK: D                               :      0.000u      0.000s      0.000w      8 calls
JK: USO2AO                          :      0.000u      0.000s      0.000w      8 calls
JK: JK                              :      0.000u      0.000s      0.000w      8 calls
PK computes JK                      :      0.000u      0.000s      0.000w      8 calls
JK: AO2USO                          :      0.000u      0.000s      0.000w      8 calls
HF: Form F                          :      0.000u      0.000s      0.000w      8 calls
HF: Form D                          :      0.000u      0.000s      0.000w      8 calls
HF: DIIS                            :      0.017u      0.000s      0.006w      7 calls
HF: Form C                          :      0.000u      0.000s      0.001w      7 calls

--------------------------------------------------------------------------------------
Total PK formation time             :      0.017u      0.000s      0.004w      1 calls
| Libint2ERI::Libint2ERI            :      0.017u      0.000s      0.001w      2 calls
HF: Form core H                     :      0.000u      0.000s      0.000w      1 calls
HF: Form S/X                        :      0.000u      0.000s      0.000w      1 calls
HF: Guess                           :      0.033u      0.000s      0.023w      1 calls
| SAD Guess                         :      0.033u      0.000s      0.021w      1 calls
HF: Form G                          :      0.000u      0.000s      0.000w      8 calls
| JK: D                             :      0.000u      0.000s      0.000w      8 calls
| JK: USO2AO                        :      0.000u      0.000s      0.000w      8 calls
| JK: JK                            :      0.000u      0.000s      0.000w      8 calls
| | PK computes JK                  :      0.000u      0.000s      0.000w      8 calls
| JK: AO2USO                        :      0.000u      0.000s      0.000w      8 calls
HF: Form F                          :      0.000u      0.000s      0.000w      8 calls
HF: Form D                          :      0.000u      0.000s      0.000w      8 calls
HF: DIIS                            :      0.017u      0.000s      0.006w      7 calls
HF: Form C                          :      0.000u      0.000s      0.001w      7 calls

**************************************************************************************

Host: nlk36701-OptiPlex-7060

Timers On : Mon Jan 10 12:48:54 2022
Timers Off: Mon Jan 10 12:48:55 2022

Wall Time:        0.36 seconds

                                                       Time (seconds)
Module                                       User      System        Wall        Calls
Total PK formation time             :      0.017u      0.000s      0.004w      1 calls
Libint2ERI::Libint2ERI              :      0.000u      0.000s      0.001w      2 calls
HF: Form core H                     :      0.000u      0.000s      0.000w      1 calls
HF: Form S/X                        :      0.000u      0.000s      0.000w      1 calls
HF: Guess                           :      0.033u      0.000s      0.023w      1 calls
SAD Guess                           :      0.033u      0.000s      0.021w      1 calls
HF: Form G                          :      0.000u      0.000s      0.000w      8 calls
JK: D                               :      0.000u      0.000s      0.000w      8 calls
JK: USO2AO                          :      0.000u      0.000s      0.000w      8 calls
JK: JK                              :      0.000u      0.000s      0.000w      8 calls
PK computes JK                      :      0.000u      0.000s      0.000w      8 calls
JK: AO2USO                          :      0.000u      0.000s      0.000w      8 calls
HF: Form F                          :      0.000u      0.000s      0.000w      8 calls
HF: Form D                          :      0.000u      0.000s      0.000w      8 calls
HF: DIIS                            :      0.000u      0.000s      0.006w      7 calls
HF: Form C                          :      0.000u      0.000s      0.001w      7 calls

--------------------------------------------------------------------------------------
Total PK formation time             :      0.017u      0.000s      0.004w      1 calls
| Libint2ERI::Libint2ERI            :      0.000u      0.000s      0.001w      2 calls
HF: Form core H                     :      0.000u      0.000s      0.000w      1 calls
HF: Form S/X                        :      0.000u      0.000s      0.000w      1 calls
HF: Guess                           :      0.033u      0.000s      0.023w      1 calls
| SAD Guess                         :      0.033u      0.000s      0.021w      1 calls
HF: Form G                          :      0.000u      0.000s      0.000w      8 calls
| JK: D                             :      0.000u      0.000s      0.000w      8 calls
| JK: USO2AO                        :      0.000u      0.000s      0.000w      8 calls
| JK: JK                            :      0.000u      0.000s      0.000w      8 calls
| | PK computes JK                  :      0.000u      0.000s      0.000w      8 calls
| JK: AO2USO                        :      0.000u      0.000s      0.000w      8 calls
HF: Form F                          :      0.000u      0.000s      0.000w      8 calls
HF: Form D                          :      0.000u      0.000s      0.000w      8 calls
HF: DIIS                            :      0.000u      0.000s      0.006w      7 calls
HF: Form C                          :      0.000u      0.000s      0.001w      7 calls

**************************************************************************************

Host: nlk36701-OptiPlex-7060

Timers On : Mon Jan 10 12:49:21 2022
Timers Off: Mon Jan 10 12:49:22 2022

Wall Time:        0.36 seconds

                                                       Time (seconds)
Module                                       User      System        Wall        Calls
Total PK formation time             :      0.000u      0.000s      0.004w      1 calls
Libint2ERI::Libint2ERI              :      0.000u      0.000s      0.001w      2 calls
HF: Form core H                     :      0.000u      0.000s      0.000w      1 calls
HF: Form S/X                        :      0.000u      0.000s      0.000w      1 calls
HF: Guess                           :      0.033u      0.017s      0.022w      1 calls
SAD Guess                           :      0.033u      0.017s      0.021w      1 calls
HF: Form G                          :      0.000u      0.000s      0.000w      8 calls
JK: D                               :      0.000u      0.000s      0.000w      8 calls
JK: USO2AO                          :      0.000u      0.000s      0.000w      8 calls
JK: JK                              :      0.000u      0.000s      0.000w      8 calls
PK computes JK                      :      0.000u      0.000s      0.000w      8 calls
JK: AO2USO                          :      0.000u      0.000s      0.000w      8 calls
HF: Form F                          :      0.000u      0.000s      0.000w      8 calls
HF: Form D                          :      0.000u      0.000s      0.000w      8 calls
HF: DIIS                            :      0.000u      0.000s      0.006w      7 calls
HF: Form C                          :      0.000u      0.000s      0.001w      7 calls

--------------------------------------------------------------------------------------
Total PK formation time             :      0.000u      0.000s      0.004w      1 calls
| Libint2ERI::Libint2ERI            :      0.000u      0.000s      0.001w      2 calls
HF: Form core H                     :      0.000u      0.000s      0.000w      1 calls
HF: Form S/X                        :      0.000u      0.000s      0.000w      1 calls
HF: Guess                           :      0.033u      0.017s      0.022w      1 calls
| SAD Guess                         :      0.033u      0.017s      0.021w      1 calls
HF: Form G                          :      0.000u      0.000s      0.000w      8 calls
| JK: D                             :      0.000u      0.000s      0.000w      8 calls
| JK: USO2AO                        :      0.000u      0.000s      0.000w      8 calls
| JK: JK                            :      0.000u      0.000s      0.000w      8 calls
| | PK computes JK                  :      0.000u      0.000s      0.000w      8 calls
| JK: AO2USO                        :      0.000u      0.000s      0.000w      8 calls
HF: Form F                          :      0.000u      0.000s      0.000w      8 calls
HF: Form D                          :      0.000u      0.000s      0.000w      8 calls
HF: DIIS                            :      0.000u      0.000s      0.006w      7 calls
HF: Form C                          :      0.000u      0.000s      0.001w      7 calls

**************************************************************************************

Host: nlk36701-OptiPlex-7060

Timers On : Mon Jan 10 12:49:35 2022
Timers Off: Mon Jan 10 12:49:35 2022

Wall Time:        0.37 seconds

                                                       Time (seconds)
Module                                       User      System        Wall        Calls
Total PK formation time             :      0.000u      0.000s      0.004w      1 calls
Libint2ERI::Libint2ERI              :      0.000u      0.000s      0.001w      2 calls
HF: Form core H                     :      0.000u      0.000s      0.000w      1 calls
HF: Form S/X                        :      0.000u      0.000s      0.000w      1 calls
HF: Guess                           :      0.033u      0.000s      0.023w      1 calls
SAD Guess                           :      0.033u      0.000s      0.021w      1 calls
HF: Form G                          :      0.000u      0.000s      0.000w      8 calls
JK: D                               :      0.000u      0.000s      0.000w      8 calls
JK: USO2AO                          :      0.000u      0.000s      0.000w      8 calls
JK: JK                              :      0.000u      0.000s      0.000w      8 calls
PK computes JK                      :      0.000u      0.000s      0.000w      8 calls
JK: AO2USO                          :      0.000u      0.000s      0.000w      8 calls
HF: Form F                          :      0.000u      0.000s      0.000w      8 calls
HF: Form D                          :      0.000u      0.000s      0.000w      8 calls
HF: DIIS                            :      0.033u      0.000s      0.007w      7 calls
HF: Form C                          :      0.000u      0.000s      0.001w      7 calls

--------------------------------------------------------------------------------------
Total PK formation time             :      0.000u      0.000s      0.004w      1 calls
| Libint2ERI::Libint2ERI            :      0.000u      0.000s      0.001w      2 calls
HF: Form core H                     :      0.000u      0.000s      0.000w      1 calls
HF: Form S/X                        :      0.000u      0.000s      0.000w      1 calls
HF: Guess                           :      0.033u      0.000s      0.023w      1 calls
| SAD Guess                         :      0.033u      0.000s      0.021w      1 calls
HF: Form G                          :      0.000u      0.000s      0.000w      8 calls
| JK: D                             :      0.000u      0.000s      0.000w      8 calls
| JK: USO2AO                        :      0.000u      0.000s      0.000w      8 calls
| JK: JK                            :      0.000u      0.000s      0.000w      8 calls
| | PK computes JK                  :      0.000u      0.000s      0.000w      8 calls
| JK: AO2USO                        :      0.000u      0.000s      0.000w      8 calls
HF: Form F                          :      0.000u      0.000s      0.000w      8 calls
HF: Form D                          :      0.000u      0.000s      0.000w      8 calls
HF: DIIS                            :      0.033u      0.000s      0.007w      7 calls
HF: Form C                          :      0.000u      0.000s      0.001w      7 calls

**************************************************************************************

Host: nlk36701-OptiPlex-7060

Timers On : Mon Jan 10 12:49:50 2022
Timers Off: Mon Jan 10 12:49:50 2022

Wall Time:        0.36 seconds

                                                       Time (seconds)
Module                                       User      System        Wall        Calls
Total PK formation time             :      0.000u      0.000s      0.004w      1 calls
Libint2ERI::Libint2ERI              :      0.000u      0.000s      0.001w      2 calls
HF: Form core H                     :      0.000u      0.000s      0.000w      1 calls
HF: Form S/X                        :      0.000u      0.000s      0.000w      1 calls
HF: Guess                           :      0.033u      0.000s      0.023w      1 calls
SAD Guess                           :      0.033u      0.000s      0.021w      1 calls
HF: Form G                          :      0.000u      0.000s      0.000w      8 calls
JK: D                               :      0.000u      0.000s      0.000w      8 calls
JK: USO2AO                          :      0.000u      0.000s      0.000w      8 calls
JK: JK                              :      0.000u      0.000s      0.000w      8 calls
PK computes JK                      :      0.000u      0.000s      0.000w      8 calls
JK: AO2USO                          :      0.000u      0.000s      0.000w      8 calls
HF: Form F                          :      0.000u      0.000s      0.000w      8 calls
HF: Form D                          :      0.000u      0.000s      0.000w      8 calls
HF: DIIS                            :      0.000u      0.000s      0.006w      7 calls
HF: Form C                          :      0.000u      0.000s      0.001w      7 calls

--------------------------------------------------------------------------------------
Total PK formation time             :      0.000u      0.000s      0.004w      1 calls
| Libint2ERI::Libint2ERI            :      0.000u      0.000s      0.001w      2 calls
HF: Form core H                     :      0.000u      0.000s      0.000w      1 calls
HF: Form S/X                        :      0.000u      0.000s      0.000w      1 calls
HF: Guess                           :      0.033u      0.000s      0.023w      1 calls
| SAD Guess                         :      0.033u      0.000s      0.021w      1 calls
HF: Form G                          :      0.000u      0.000s      0.000w      8 calls
| JK: D                             :      0.000u      0.000s      0.000w      8 calls
[...]

Host: nlk36701-OptiPlex-7060

Timers On : Mon Jan 10 15:18:50 2022
Timers Off: Mon Jan 10 15:18:50 2022

Wall Time:        0.41 seconds

                                                       Time (seconds)
Module                                       User      System        Wall        Calls
Total PK formation time             :      0.000u      0.000s      0.005w      1 calls
Libint2ERI::Libint2ERI              :      0.000u      0.000s      0.001w      3 calls
HF: Form core H                     :      0.017u      0.000s      0.000w      1 calls
HF: Form S/X                        :      0.000u      0.000s      0.000w      1 calls
HF: Guess                           :      0.017u      0.000s      0.022w      1 calls
SAD Guess                           :      0.017u      0.000s      0.021w      1 calls
HF: Form G                          :      0.000u      0.000s      0.000w      8 calls
JK: D                               :      0.000u      0.000s      0.000w      8 calls
JK: USO2AO                          :      0.000u      0.000s      0.000w      8 calls
JK: JK                              :      0.000u      0.000s      0.000w      8 calls
PK computes JK                      :      0.000u      0.000s      0.000w      8 calls
JK: AO2USO                          :      0.000u      0.000s      0.000w      8 calls
HF: Form F                          :      0.000u      0.000s      0.000w      8 calls
HF: Form D                          :      0.000u      0.000s      0.000w      8 calls
HF: DIIS                            :      0.000u      0.000s      0.006w      7 calls
HF: Form C                          :      0.000u      0.000s      0.001w      7 calls

--------------------------------------------------------------------------------------
Total PK formation time             :      0.000u      0.000s      0.005w      1 calls
| Libint2ERI::Libint2ERI            :      0.000u      0.000s      0.001w      2 calls
HF: Form core H                     :      0.017u      0.000s      0.000w      1 calls
HF: Form S/X                        :      0.000u      0.000s      0.000w      1 calls
HF: Guess                           :      0.017u      0.000s      0.022w      1 calls
| SAD Guess                         :      0.017u      0.000s      0.021w      1 calls
HF: Form G                          :      0.000u      0.000s      0.000w      8 calls
| JK: D                             :      0.000u      0.000s      0.000w      8 calls
| JK: USO2AO                        :      0.000u      0.000s      0.000w      8 calls
| JK: JK                            :      0.000u      0.000s      0.000w      8 calls
| | PK computes JK                  :      0.000u      0.000s      0.000w      8 calls
| JK: AO2USO                        :      0.000u      0.000s      0.000w      8 calls
HF: Form F                          :      0.000u      0.000s      0.000w      8 calls
HF: Form D                          :      0.000u      0.000s      0.000w      8 calls
HF: DIIS                            :      0.000u      0.000s      0.006w      7 calls
HF: Form C                          :      0.000u      0.000s      0.001w      7 calls
Libint2ERI::Libint2ERI              :      0.000u      0.000s      0.000w      1 calls

**************************************************************************************

Host: nlk36701-OptiPlex-7060

Timers On : Mon Jan 10 15:19:05 2022
Timers Off: Mon Jan 10 15:19:05 2022

Wall Time:        0.41 seconds

                                                       Time (seconds)
Module                                       User      System        Wall        Calls
Total PK formation time             :      0.000u      0.000s      0.004w      1 calls
Libint2ERI::Libint2ERI              :      0.000u      0.000s      0.001w      3 calls
HF: Form core H                     :      0.000u      0.000s      0.000w      1 calls
HF: Form S/X                        :      0.000u      0.000s      0.000w      1 calls
HF: Guess                           :      0.033u      0.000s      0.023w      1 calls
SAD Guess                           :      0.033u      0.000s      0.021w      1 calls
HF: Form G                          :      0.000u      0.000s      0.000w      8 calls
JK: D                               :      0.000u      0.000s      0.000w      8 calls
JK: USO2AO                          :      0.000u      0.000s      0.000w      8 calls
JK: JK                              :      0.000u      0.000s      0.000w      8 calls
PK computes JK                      :      0.000u      0.000s      0.000w      8 calls
JK: AO2USO                          :      0.000u      0.000s      0.000w      8 calls
HF: Form F                          :      0.000u      0.000s      0.000w      8 calls
HF: Form D                          :      0.000u      0.000s      0.000w      8 calls
HF: DIIS                            :      0.000u      0.000s      0.006w      7 calls
HF: Form C                          :      0.000u      0.000s      0.001w      7 calls

--------------------------------------------------------------------------------------
Total PK formation time             :      0.000u      0.000s      0.004w      1 calls
| Libint2ERI::Libint2ERI            :      0.000u      0.000s      0.001w      2 calls
HF: Form core H                     :      0.000u      0.000s      0.000w      1 calls
HF: Form S/X                        :      0.000u      0.000s      0.000w      1 calls
HF: Guess                           :      0.033u      0.000s      0.023w      1 calls
| SAD Guess                         :      0.033u      0.000s      0.021w      1 calls
HF: Form G                          :      0.000u      0.000s      0.000w      8 calls
| JK: D                             :      0.000u      0.000s      0.000w      8 calls
| JK: USO2AO                        :      0.000u      0.000s      0.000w      8 calls
| JK: JK                            :      0.000u      0.000s      0.000w      8 calls
| | PK computes JK                  :      0.000u      0.000s      0.000w      8 calls
| JK: AO2USO                        :      0.000u      0.000s      0.000w      8 calls
HF: Form F                          :      0.000u      0.000s      0.000w      8 calls
HF: Form D                          :      0.000u      0.000s      0.000w      8 calls
HF: DIIS                            :      0.000u      0.000s      0.006w      7 calls
HF: Form C                          :      0.000u      0.000s      0.001w      7 calls
Libint2ERI::Libint2ERI              :      0.000u      0.000s      0.000w      1 calls

**************************************************************************************

Host: nlk36701-OptiPlex-7060

Timers On : Mon Jan 10 15:48:21 2022
Timers Off: Mon Jan 10 15:48:21 2022

Wall Time:        0.41 seconds

                                                       Time (seconds)
Module                                       User      System        Wall        Calls
Total PK formation time             :      0.000u      0.000s      0.004w      1 calls
Libint2ERI::Libint2ERI              :      0.000u      0.000s      0.001w      3 calls
HF: Form core H                     :      0.000u      0.000s      0.000w      1 calls
HF: Form S/X                        :      0.000u      0.000s      0.000w      1 calls
HF: Guess                           :      0.033u      0.000s      0.022w      1 calls
SAD Guess                           :      0.033u      0.000s      0.021w      1 calls
HF: Form G                          :      0.000u      0.000s      0.000w      8 calls
JK: D                               :      0.000u      0.000s      0.000w      8 calls
JK: USO2AO                          :      0.000u      0.000s      0.000w      8 calls
JK: JK                              :      0.000u      0.000s      0.000w      8 calls
PK computes JK                      :      0.000u      0.000s      0.000w      8 calls
JK: AO2USO                          :      0.000u      0.000s      0.000w      8 calls
HF: Form F                          :      0.000u      0.000s      0.000w      8 calls
HF: Form D                          :      0.000u      0.000s      0.000w      8 calls
HF: DIIS                            :      0.017u      0.017s      0.006w      7 calls
HF: Form C                          :      0.017u      0.000s      0.001w      7 calls

--------------------------------------------------------------------------------------
Total PK formation time             :      0.000u      0.000s      0.004w      1 calls
| Libint2ERI::Libint2ERI            :      0.000u      0.000s      0.001w      2 calls
HF: Form core H                     :      0.000u      0.000s      0.000w      1 calls
HF: Form S/X                        :      0.000u      0.000s      0.000w      1 calls
HF: Guess                           :      0.033u      0.000s      0.022w      1 calls
| SAD Guess                         :      0.033u      0.000s      0.021w      1 calls
HF: Form G                          :      0.000u      0.000s      0.000w      8 calls
| JK: D                             :      0.000u      0.000s      0.000w      8 calls
| JK: USO2AO                        :      0.000u      0.000s      0.000w      8 calls
| JK: JK                            :      0.000u      0.000s      0.000w      8 calls
| | PK computes JK                  :      0.000u      0.000s      0.000w      8 calls
| JK: AO2USO                        :      0.000u      0.000s      0.000w      8 calls
HF: Form F                          :      0.000u      0.000s      0.000w      8 calls
HF: Form D                          :      0.000u      0.000s      0.000w      8 calls
HF: DIIS                            :      0.017u      0.017s      0.006w      7 calls
HF: Form C                          :      0.017u      0.000s      0.001w      7 calls
Libint2ERI::Libint2ERI              :      0.000u      0.000s      0.000w      1 calls

**************************************************************************************

Host: nlk36701-OptiPlex-7060

Timers On : Mon Jan 10 15:48:53 2022
Timers Off: Mon Jan 10 15:48:53 2022

Wall Time:        0.42 seconds

                                                       Time (seconds)
Module                                       User      System        Wall        Calls
Total PK formation time             :      0.000u      0.000s      0.004w      1 calls
Libint2ERI::Libint2ERI              :      0.000u      0.000s      0.001w      3 calls
HF: Form core H                     :      0.000u      0.000s      0.000w      1 calls
HF: Form S/X                        :      0.000u      0.000s      0.000w      1 calls
HF: Guess                           :      0.017u      0.017s      0.023w      1 calls
SAD Guess                           :      0.017u      0.017s      0.022w      1 calls
HF: Form G                          :      0.000u      0.000s      0.000w      8 calls
JK: D                               :      0.000u      0.000s      0.000w      8 calls
JK: USO2AO                          :      0.000u      0.000s      0.000w      8 calls
JK: JK                              :      0.000u      0.000s      0.000w      8 calls
PK computes JK                      :      0.000u      0.000s      0.000w      8 calls
JK: AO2USO                          :      0.000u      0.000s      0.000w      8 calls
HF: Form F                          :      0.000u      0.000s      0.000w      8 calls
HF: Form D                          :      0.000u      0.000s      0.000w      8 calls
HF: DIIS                            :      0.017u      0.000s      0.006w      7 calls
HF: Form C                          :      0.000u      0.000s      0.001w      7 calls

--------------------------------------------------------------------------------------
Total PK formation time             :      0.000u      0.000s      0.004w      1 calls
| Libint2ERI::Libint2ERI            :      0.000u      0.000s      0.001w      2 calls
HF: Form core H                     :      0.000u      0.000s      0.000w      1 calls
HF: Form S/X                        :      0.000u      0.000s      0.000w      1 calls
HF: Guess                           :      0.017u      0.017s      0.023w      1 calls
| SAD Guess                         :      0.017u      0.017s      0.022w      1 calls
HF: Form G                          :      0.000u      0.000s      0.000w      8 calls
| JK: D                             :      0.000u      0.000s      0.000w      8 calls
| JK: USO2AO                        :      0.000u      0.000s      0.000w      8 calls
| JK: JK                            :      0.000u      0.000s      0.000w      8 calls
| | PK computes JK                  :      0.000u      0.000s      0.000w      8 calls
| JK: AO2USO                        :      0.000u      0.000s      0.000w      8 calls
HF: Form F                          :      0.000u      0.000s      0.000w      8 calls
HF: Form D                          :      0.000u      0.000s      0.000w      8 calls
HF: DIIS                            :      0.017u      0.000s      0.006w      7 calls
HF: Form C                          :      0.000u      0.000s      0.001w      7 calls
Libint2ERI::Libint2ERI              :      0.000u      0.000s      0.000w      1 calls

**************************************************************************************

Host: nlk36701-OptiPlex-7060

Timers On : Mon Jan 10 15:57:48 2022
Timers Off: Mon Jan 10 15:57:48 2022

Wall Time:        0.26 seconds

                                                       Time (seconds)
Module                                       User      System        Wall        Calls

--------------------------------------------------------------------------------------

**************************************************************************************

Host: nlk36701-OptiPlex-7060

Timers On : Mon Jan 10 15:58:29 2022
Timers Off: Mon Jan 10 15:58:30 2022

Wall Time:        0.26 seconds

                                                       Time (seconds)
Module                                       User      System        Wall        Calls

--------------------------------------------------------------------------------------

**************************************************************************************

Host: nlk36701-OptiPlex-7060

Timers On : Mon Jan 10 15:59:27 2022
Timers Off: Mon Jan 10 15:59:27 2022

Wall Time:        0.26 seconds

                                                       Time (seconds)
Module                                       User      System        Wall        Calls

--------------------------------------------------------------------------------------

**************************************************************************************

Host: nlk36701-OptiPlex-7060

Timers On : Mon Jan 10 15:59:36 2022
Timers Off: Mon Jan 10 15:59:36 2022

Wall Time:        0.26 seconds

                                                       Time (seconds)
Module                                       User      System        Wall        Calls

--------------------------------------------------------------------------------------

**************************************************************************************

Host: nlk36701-OptiPlex-7060

Timers On : Mon Jan 10 15:59:51 2022
Timers Off: Mon Jan 10 15:59:52 2022

Wall Time:        0.26 seconds

                                                       Time (seconds)
Module                                       User      System        Wall        Calls

--------------------------------------------------------------------------------------

**************************************************************************************

Host: nlk36701-OptiPlex-7060

Timers On : Mon Jan 10 16:02:31 2022
Timers Off: Mon Jan 10 16:02:31 2022

Wall Time:        0.27 seconds

                                                       Time (seconds)
Module                                       User      System        Wall        Calls

--------------------------------------------------------------------------------------

**************************************************************************************

Host: nlk36701-OptiPlex-7060

Timers On : Mon Jan 10 16:04:06 2022
Timers Off: Mon Jan 10 16:04:06 2022

Wall Time:        0.26 seconds

                                                       Time (seconds)
Module                                       User      System        Wall        Calls

--------------------------------------------------------------------------------------

**************************************************************************************

Host: nlk36701-OptiPlex-7060

Timers On : Mon Jan 10 16:05:12 2022
Timers Off: Mon Jan 10 16:05:12 2022

Wall Time:        0.26 seconds

                                                       Time (seconds)
Module                                       User      System        Wall        Calls

--------------------------------------------------------------------------------------

**************************************************************************************

Host: nlk36701-OptiPlex-7060

Timers On : Mon Jan 10 16:14:20 2022
Timers Off: Mon Jan 10 16:14:20 2022

Wall Time:        0.22 seconds

                                                       Time (seconds)
Module                                       User      System        Wall        Calls

--------------------------------------------------------------------------------------

**************************************************************************************

Host: nlk36701-OptiPlex-7060

Timers On : Mon Jan 10 16:14:38 2022
Timers Off: Mon Jan 10 16:14:38 2022

Wall Time:        0.22 seconds

                                                       Time (seconds)
Module                                       User      System        Wall        Calls

--------------------------------------------------------------------------------------

**************************************************************************************

Host: nlk36701-OptiPlex-7060

Timers On : Mon Jan 10 16:15:06 2022
Timers Off: Mon Jan 10 16:15:07 2022

Wall Time:        0.26 seconds

                                                       Time (seconds)
Module                                       User      System        Wall        Calls

--------------------------------------------------------------------------------------

**************************************************************************************

Host: nlk36701-OptiPlex-7060

Timers On : Mon Jan 10 16:15:53 2022
Timers Off: Mon Jan 10 16:15:53 2022

Wall Time:        0.32 seconds

                                                       Time (seconds)
Module                                       User      System        Wall        Calls

--------------------------------------------------------------------------------------

**************************************************************************************

Host: nlk36701-OptiPlex-7060

Timers On : Mon Jan 10 16:17:45 2022
Timers Off: Mon Jan 10 16:17:45 2022

Wall Time:        0.30 seconds

                                                       Time (seconds)
Module                                       User      System        Wall        Calls

--------------------------------------------------------------------------------------

**************************************************************************************

Host: nlk36701-OptiPlex-7060

Timers On : Mon Jan 10 16:18:27 2022
Timers Off: Mon Jan 10 16:18:27 2022

Wall Time:        0.30 seconds

                                                       Time (seconds)
Module                                       User      System        Wall        Calls

--------------------------------------------------------------------------------------

**************************************************************************************
