
    -----------------------------------------------------------------------
          Psi4: An Open-Source Ab Initio Electronic Structure Package
                               Psi4 1.5 release

                         Git: Rev {HEAD} e9f4d6d 


    D. G. A. Smith, L. A. Burns, A. C. Simmonett, R. M. Parrish,
    M. C. Schieber, R. Galvelis, P. Kraus, H. Kruse, R. Di Remigio,
    A. Alenaizan, A. M. James, S. Lehtola, J. P. Misiewicz, M. Scheurer,
    R. A. Shaw, J. B. Schriber, Y. Xie, Z. L. Glick, D. A. Sirianni,
    J. S. O'Brien, J. M. Waldrop, A. Kumar, E. G. Hohenstein,
    B. P. Pritchard, B. R. Brooks, H. F. Schaefer III, A. Yu. Sokolov,
    K. Patkowski, A. E. DePrince III, U. Bozkaya, R. A. King,
    F. A. Evangelista, J. M. Turney, T. D. Crawford, C. D. Sherrill,
    J. Chem. Phys. 152(18) 184108 (2020). https://doi.org/10.1063/5.0006002

                            Additional Code Authors
    E. T. Seidl, C. L. Janssen, E. F. Valeev, M. L. Leininger,
    J. F. Gonthier, R. M. Richard, H. R. McAlexander, M. Saitow, X. Wang,
    P. Verma, M. H. Lechner, and A. Jiang

             Previous Authors, Complete List of Code Contributors,
                       and Citations for Specific Modules
    https://github.com/psi4/psi4/blob/master/codemeta.json
    https://github.com/psi4/psi4/graphs/contributors
    http://psicode.org/psi4manual/master/introduction.html#citing-psifour

    -----------------------------------------------------------------------


    Psi4 started on: Tuesday, 22 February 2022 03:17PM

    Process ID: 4821
    Host:       smg13363-ws
    PSIDATADIR: /home/smg13363/anaconda3/envs/psi4py39/share/psi4
    Memory:     500.0 MiB
    Threads:    1
    
  ==> Input File <==

--------------------------------------------------------------------------

molecule = {
  0 1
  C   0.500   0.500   0.500
  C   0.500  -0.500   0.500
  C  -0.500   0.500   0.500
  C  -0.500  -0.500   0.500
  C   0.500   0.500  -0.500
  C   0.500  -0.500  -0.500
  C  -0.500   0.500  -0.500
  C  -0.500  -0.500  -0.500
}

set {
basis sto-3g
scf_type pk
e_convergence 10
}

energy("scf")

--------------------------------------------------------------------------

Scratch directory: /tmp/

*** tstart() called on smg13363-ws
*** at Tue Feb 22 15:17:30 2022

   => Loading Basis Set <=

    Name: STO-3G
    Role: ORBITAL
    Keyword: BASIS
    atoms 1-8 entry C          line    61 file /home/smg13363/anaconda3/envs/psi4py39/share/psi4/basis/sto-3g.gbs 


         ---------------------------------------------------------
                                   SCF
               by Justin Turney, Rob Parrish, Andy Simmonett
                          and Daniel G. A. Smith
                              RHF Reference
                        1 Threads,    500 MiB Core
         ---------------------------------------------------------

  ==> Geometry <==

    Molecular point group: d2h
    Full point group: Ih

    Geometry (in Angstrom), charge = 0, multiplicity = 1:

       Center              X                  Y                   Z               Mass       
    ------------   -----------------  -----------------  -----------------  -----------------
         C            0.707106781187     0.500000000000     0.000000000000    12.000000000000
         C            0.707106781187    -0.500000000000     0.000000000000    12.000000000000
         C           -0.000000000000     0.500000000000     0.707106781187    12.000000000000
         C            0.000000000000    -0.500000000000     0.707106781187    12.000000000000
         C           -0.000000000000     0.500000000000    -0.707106781187    12.000000000000
         C            0.000000000000    -0.500000000000    -0.707106781187    12.000000000000
         C           -0.707106781187     0.500000000000     0.000000000000    12.000000000000
         C           -0.707106781187    -0.500000000000     0.000000000000    12.000000000000

  Running in d2h symmetry.

  Rotational constants: A =      0.35120  B =      0.35120  C =      0.35120 [cm^-1]
  Rotational constants: A =  10528.72935  B =  10528.72935  C =  10528.72935 [MHz]
  Nuclear repulsion =  434.247353190973058

  Charge       = 0
  Multiplicity = 1
  Electrons    = 48
  Nalpha       = 24
  Nbeta        = 24

  ==> Algorithm <==

  SCF Algorithm Type is PK.
  DIIS enabled.
  MOM disabled.
  Fractional occupation disabled.
  Guess Type is SAD.
  Energy threshold   = 1.00e-10
  Density threshold  = 1.00e-06
  Integral threshold = 1.00e-12

  ==> Primary Basis <==

  Basis Set: STO-3G
    Blend: STO-3G
    Number of shells: 24
    Number of basis functions: 40
    Number of Cartesian functions: 40
    Spherical Harmonics?: true
    Max angular momentum: 1

  ==> Integral Setup <==

  Using in-core PK algorithm.
   Calculation information:
      Number of atoms:                   8
      Number of AO shells:              24
      Number of primitives:             72
      Number of atomic orbitals:        40
      Number of basis functions:        40

      Integral cutoff                 1.00e-12
      Number of threads:                 1

  Performing in-core PK
  Using 673220 doubles for integral storage.
  We computed 44966 shell quartets total.
  Whereas there are 45150 unique shell quartets.

  ==> DiskJK: Disk-Based J/K Matrices <==

    J tasked:                  Yes
    K tasked:                  Yes
    wK tasked:                  No
    Memory [MiB]:              375
    Schwarz Cutoff:          1E-12

    OpenMP threads:              1

  Minimum eigenvalue in the overlap matrix is 1.0552986075E-02.
  Reciprocal condition number of the overlap matrix is 2.6714741160E-03.
    Using symmetric orthogonalization.

  ==> Pre-Iterations <==

  SCF Guess: Superposition of Atomic Densities via on-the-fly atomic UHF (no occupation information).

   -------------------------
    Irrep   Nso     Nmo    
   -------------------------
     Ag         8       8 
     B1g        5       5 
     B2g        2       2 
     B3g        5       5 
     Au         2       2 
     B1u        5       5 
     B2u        8       8 
     B3u        5       5 
   -------------------------
    Total      40      40
   -------------------------

  ==> Iterations <==

                        Total Energy        Delta E     RMS |[F,P]|

   @RHF iter SAD:  -311.40339998093140   -3.11403e+02   0.00000e+00 
   @RHF iter   1:  -292.65189175869659    1.87515e+01   3.23476e-02 DIIS
   @RHF iter   2:  -292.81019742879226   -1.58306e-01   4.41671e-03 DIIS
   @RHF iter   3:  -292.81172672985088   -1.52930e-03   7.15129e-04 DIIS
   @RHF iter   4:  -292.81181352292401   -8.67931e-05   9.24288e-05 DIIS
   @RHF iter   5:  -292.81181539083263   -1.86791e-06   3.12017e-06 DIIS
   @RHF iter   6:  -292.81181539248962   -1.65699e-09   2.30245e-07 DIIS
   @RHF iter   7:  -292.81181539250065   -1.10276e-11   8.66581e-09 DIIS
  Energy and wave function converged.


  ==> Post-Iterations <==

    Orbital Energies [Eh]
    ---------------------

    Doubly Occupied:                                                      

       1Ag   -11.441549     1B1u  -11.424113     1B2u  -11.424113  
       1B3u  -11.424113     2Ag   -11.407139     1B3g  -11.407139  
       1B1g  -11.407139     2B2u  -11.391497     3Ag    -2.591107  
       2B3u   -1.654123     2B1u   -1.654123     3B2u   -1.654123  
       4Ag    -1.190176     1B2g   -1.190176     5Ag    -0.960779  
       6Ag    -0.830375     2B3g   -0.830375     2B1g   -0.830375  
       3B1u   -0.661906     3B3u   -0.661906     1Au    -0.661906  
       4B2u   -0.550413     4B1u   -0.550413     4B3u   -0.550413  

    Virtual:                                                              

       3B3g    0.272470     3B1g    0.272470     7Ag     0.272470  
       5B2u    0.308510     5B3u    0.767563     5B1u    0.767563  
       6B2u    0.767563     2B2g    0.998775     4B1g    0.998775  
       4B3g    0.998775     7B2u    1.618363     2Au     1.618363  
       5B3g    2.094502     5B1g    2.094502     8Ag     2.094502  
       8B2u    3.941551  

    Final Occupation by Irrep:
             Ag   B1g   B2g   B3g    Au   B1u   B2u   B3u 
    DOCC [     6,    2,    1,    2,    1,    4,    4,    4 ]

  @RHF Final Energy:  -292.81181539250065

   => Energetics <=

    Nuclear Repulsion Energy =            434.2473531909730582
    One-Electron Energy =               -1237.4193541324605121
    Two-Electron Energy =                 510.3601855489868058
    Total Energy =                       -292.8118153925006482

Computation Completed


Properties will be evaluated at   0.000000,   0.000000,   0.000000 [a0]

Properties computed using the SCF density matrix

  Nuclear Dipole Moment: [e a0]
     X:    -0.0000      Y:     0.0000      Z:    -0.0000

  Electronic Dipole Moment: [e a0]
     X:     0.0000      Y:     0.0000      Z:     0.0000

  Dipole Moment: [e a0]
     X:    -0.0000      Y:     0.0000      Z:    -0.0000     Total:     0.0000

  Dipole Moment: [D]
     X:    -0.0000      Y:     0.0000      Z:    -0.0000     Total:     0.0000


*** tstop() called on smg13363-ws at Tue Feb 22 15:17:31 2022
Module time:
	user time   =       0.43 seconds =       0.01 minutes
	system time =       0.00 seconds =       0.00 minutes
	total time  =          1 seconds =       0.02 minutes
Total time:
	user time   =       0.43 seconds =       0.01 minutes
	system time =       0.00 seconds =       0.00 minutes
	total time  =          1 seconds =       0.02 minutes

    Psi4 stopped on: Tuesday, 22 February 2022 03:17PM
    Psi4 wall time for execution: 0:00:00.45

*** Psi4 exiting successfully. Buy a developer a beer!
